ATOM      1 O1   UNL     1       8.346   0.110  -0.862  1.00  0.00    -0.478 OA
ATOM      2 C2   UNL     1       7.571  -0.356   0.128  1.00  0.00    +0.337 C
ATOM      3 O3   UNL     1       7.982  -1.036   1.044  1.00  0.00    -0.246 OA
ATOM      4 C4   UNL     1       6.193   0.128  -0.035  1.00  0.00    +0.090 A
ATOM      5 C5   UNL     1       5.610   0.888   0.989  1.00  0.00    +0.090 A
ATOM      6 C6   UNL     1       6.405   1.221   2.178  1.00  0.00    +0.337 C
ATOM      7 O7   UNL     1       7.465   1.812   2.183  1.00  0.00    -0.246 OA
ATOM      8 O8   UNL     1       5.828   0.715   3.277  1.00  0.00    -0.478 OA
ATOM      9 C9   UNL     1       4.289   1.341   0.862  1.00  0.00    +0.088 A
ATOM     10 C10  UNL     1       3.652   2.129   1.923  1.00  0.00    +0.337 C
ATOM     11 O11  UNL     1       2.636   1.826   2.513  1.00  0.00    -0.246 OA
ATOM     12 O12  UNL     1       4.324   3.270   2.130  1.00  0.00    -0.478 OA
ATOM     13 C13  UNL     1       3.549   1.019  -0.281  1.00  0.00    +0.070 A
ATOM     14 C14  UNL     1       2.189   1.556  -0.447  1.00  0.00    +0.255 C
ATOM     15 O15  UNL     1       2.105   2.763  -0.650  1.00  0.00    -0.269 OA
ATOM     16 N16  UNL     1       1.110   0.683  -0.409  1.00  0.00    -0.335 N
ATOM     17 C17  UNL     1       1.149  -0.650   0.225  1.00  0.00    +0.039 C
ATOM     18 C18  UNL     1       0.135  -1.607  -0.418  1.00  0.00    +0.039 C
ATOM     19 N19  UNL     1      -1.204  -1.013  -0.442  1.00  0.00    -0.335 N
ATOM     20 C20  UNL     1      -2.174  -1.532   0.401  1.00  0.00    +0.255 C
ATOM     21 O21  UNL     1      -1.997  -2.466   1.177  1.00  0.00    -0.269 OA
ATOM     22 C22  UNL     1      -3.532  -0.965   0.361  1.00  0.00    +0.070 A
ATOM     23 C23  UNL     1      -4.021  -0.266   1.473  1.00  0.00    +0.088 A
ATOM     24 C24  UNL     1      -3.125  -0.033   2.612  1.00  0.00    +0.337 C
ATOM     25 O25  UNL     1      -2.046   0.519   2.549  1.00  0.00    -0.246 OA
ATOM     26 O26  UNL     1      -3.634  -0.560   3.734  1.00  0.00    -0.478 OA
ATOM     27 C27  UNL     1      -5.330   0.236   1.466  1.00  0.00    +0.090 A
ATOM     28 C28  UNL     1      -5.818   0.994   2.628  1.00  0.00    +0.337 C
ATOM     29 O29  UNL     1      -5.272   1.951   3.136  1.00  0.00    -0.246 OA
ATOM     30 O30  UNL     1      -6.942   0.444   3.110  1.00  0.00    -0.478 OA
ATOM     31 C31  UNL     1      -6.144   0.043   0.340  1.00  0.00    +0.090 A
ATOM     32 C32  UNL     1      -7.511   0.579   0.296  1.00  0.00    +0.337 C
ATOM     33 O33  UNL     1      -8.523  -0.067   0.121  1.00  0.00    -0.246 OA
ATOM     34 O34  UNL     1      -7.487   1.915   0.405  1.00  0.00    -0.478 OA
ATOM     35 C35  UNL     1      -5.661  -0.673  -0.764  1.00  0.00    +0.090 A
ATOM     36 C36  UNL     1      -6.502  -0.811  -1.961  1.00  0.00    +0.337 C
ATOM     37 O37  UNL     1      -6.978   0.109  -2.593  1.00  0.00    -0.246 OA
ATOM     38 O38  UNL     1      -6.720  -2.102  -2.241  1.00  0.00    -0.478 OA
ATOM     39 C39  UNL     1      -4.360  -1.190  -0.747  1.00  0.00    +0.088 A
ATOM     40 C40  UNL     1      -3.844  -1.900  -1.921  1.00  0.00    +0.337 C
ATOM     41 O41  UNL     1      -3.655  -1.401  -3.011  1.00  0.00    -0.246 OA
ATOM     42 O42  UNL     1      -3.630  -3.188  -1.633  1.00  0.00    -0.478 OA
ATOM     43 C43  UNL     1      -1.258   0.298  -1.107  1.00  0.00    +0.039 C
ATOM     44 C44  UNL     1      -0.232   1.273  -0.503  1.00  0.00    +0.039 C
ATOM     45 C45  UNL     1       4.140   0.276  -1.311  1.00  0.00    +0.088 A
ATOM     46 C46  UNL     1       3.359  -0.076  -2.498  1.00  0.00    +0.337 C
ATOM     47 O47  UNL     1       2.866  -1.166  -2.707  1.00  0.00    -0.246 OA
ATOM     48 O48  UNL     1       3.287   0.969  -3.327  1.00  0.00    -0.478 OA
ATOM     49 C49  UNL     1       5.452  -0.193  -1.181  1.00  0.00    +0.090 A
ATOM     50 C50  UNL     1       6.020  -1.028  -2.250  1.00  0.00    +0.337 C
ATOM     51 O51  UNL     1       6.065  -0.754  -3.430  1.00  0.00    -0.246 OA
ATOM     52 O52  UNL     1       6.414  -2.210  -1.752  1.00  0.00    -0.478 OA
ATOM     53 H53  UNL     1       9.254  -0.185  -0.632  1.00  0.00    +0.297 HD
ATOM     54 H54  UNL     1       6.454   0.918   4.006  1.00  0.00    +0.297 HD
ATOM     55 H55  UNL     1       3.781   3.768   2.780  1.00  0.00    +0.297 HD
ATOM     56 H56  UNL     1       2.149  -1.085   0.173  1.00  0.00    +0.051 H
ATOM     57 H57  UNL     1       0.912  -0.501   1.286  1.00  0.00    +0.051 H
ATOM     58 H58  UNL     1       0.412  -1.804  -1.460  1.00  0.00    +0.051 H
ATOM     59 H59  UNL     1       0.135  -2.565   0.111  1.00  0.00    +0.051 H
ATOM     60 H60  UNL     1      -2.951  -0.389   4.418  1.00  0.00    +0.297 HD
ATOM     61 H61  UNL     1      -7.164   0.974   3.905  1.00  0.00    +0.297 HD
ATOM     62 H62  UNL     1      -8.420   2.194   0.281  1.00  0.00    +0.297 HD
ATOM     63 H63  UNL     1      -7.325  -2.092  -3.014  1.00  0.00    +0.297 HD
ATOM     64 H64  UNL     1      -3.292  -3.598  -2.458  1.00  0.00    +0.297 HD
ATOM     65 H65  UNL     1      -2.255   0.741  -1.049  1.00  0.00    +0.051 H
ATOM     66 H66  UNL     1      -1.026   0.125  -2.164  1.00  0.00    +0.051 H
ATOM     67 H67  UNL     1      -0.204   2.188  -1.104  1.00  0.00    +0.051 H
ATOM     68 H68  UNL     1      -0.527   1.555   0.514  1.00  0.00    +0.051 H
ATOM     69 H69  UNL     1       2.806   0.656  -4.122  1.00  0.00    +0.297 HD
ATOM     70 H70  UNL     1       6.722  -2.723  -2.531  1.00  0.00    +0.297 HD
TER