ATOM      1 O1   UNL     1       4.576  -3.765   0.723  1.00  0.00    -0.385 OA
ATOM      2 C2   UNL     1       3.497  -3.064   0.125  1.00  0.00    +0.141 C
ATOM      3 C3   UNL     1       3.955  -1.969  -0.828  1.00  0.00    +0.334 C
ATOM      4 O4   UNL     1       5.093  -1.865  -1.272  1.00  0.00    -0.249 OA
ATOM      5 O5   UNL     1       2.923  -1.137  -1.133  1.00  0.00    -0.431 OA
ATOM      6 C6   UNL     1       3.241  -0.097  -2.075  1.00  0.00    +0.232 C
ATOM      7 C7   UNL     1       3.928   1.103  -1.378  1.00  0.00    +0.145 C
ATOM      8 O8   UNL     1       5.099   0.770  -0.621  1.00  0.00    -0.384 OA
ATOM      9 C9   UNL     1       2.939   1.783  -0.424  1.00  0.00    +0.115 C
ATOM     10 O10  UNL     1       3.489   3.042  -0.009  1.00  0.00    -0.387 OA
ATOM     11 C11  UNL     1       1.557   2.004  -1.064  1.00  0.00    +0.118 C
ATOM     12 O12  UNL     1       0.615   1.155  -0.381  1.00  0.00    -0.341 OA
ATOM     13 C13  UNL     1      -0.058   1.824   0.688  1.00  0.00    +0.188 C
ATOM     14 O14  UNL     1      -1.077   2.661   0.148  1.00  0.00    -0.332 OA
ATOM     15 C15  UNL     1      -1.654   3.549   1.122  1.00  0.00    +0.186 C
ATOM     16 C16  UNL     1      -0.975   4.914   1.081  1.00  0.00    +0.335 C
ATOM     17 O17  UNL     1      -1.512   5.991   0.877  1.00  0.00    -0.249 OA
ATOM     18 O18  UNL     1       0.361   4.854   1.272  1.00  0.00    -0.479 OA
ATOM     19 C19  UNL     1      -1.630   2.993   2.555  1.00  0.00    +0.120 C
ATOM     20 O20  UNL     1      -2.702   3.539   3.332  1.00  0.00    -0.387 OA
ATOM     21 C21  UNL     1      -1.768   1.470   2.522  1.00  0.00    +0.114 C
ATOM     22 O22  UNL     1      -1.715   0.991   3.878  1.00  0.00    -0.387 OA
ATOM     23 C23  UNL     1      -0.680   0.794   1.670  1.00  0.00    +0.137 C
ATOM     24 O24  UNL     1      -1.333  -0.317   1.005  1.00  0.00    -0.361 OA
ATOM     25 C25  UNL     1      -0.438  -1.369   0.601  1.00  0.00    +0.115 C
ATOM     26 C26  UNL     1      -0.725  -1.677  -0.882  1.00  0.00    +0.108 C
ATOM     27 O27  UNL     1       0.339  -2.472  -1.429  1.00  0.00    -0.388 OA
ATOM     28 C28  UNL     1      -2.073  -2.400  -1.067  1.00  0.00    +0.108 C
ATOM     29 N29  UNL     1      -3.187  -1.474  -0.846  1.00  0.00    -0.346 N
ATOM     30 C30  UNL     1      -4.456  -1.769  -1.279  1.00  0.00    +0.217 C
ATOM     31 C31  UNL     1      -5.505  -0.785  -0.839  1.00  0.00    +0.015 C
ATOM     32 O32  UNL     1      -4.721  -2.754  -1.959  1.00  0.00    -0.275 OA
ATOM     33 C33  UNL     1      -2.128  -3.632  -0.129  1.00  0.00    +0.178 C
ATOM     34 O34  UNL     1      -1.195  -4.644  -0.496  1.00  0.00    -0.366 OA
ATOM     35 O35  UNL     1      -1.922  -3.242   1.232  1.00  0.00    -0.342 OA
ATOM     36 C36  UNL     1      -0.632  -2.648   1.454  1.00  0.00    +0.113 C
ATOM     37 C37  UNL     1      -0.522  -2.408   2.966  1.00  0.00    +0.072 C
ATOM     38 O38  UNL     1      -1.651  -1.679   3.457  1.00  0.00    -0.394 OA
ATOM     39 C39  UNL     1       1.580   1.607  -2.551  1.00  0.00    +0.114 C
ATOM     40 O40  UNL     1       2.014   0.243  -2.740  1.00  0.00    -0.332 OA
ATOM     41 C41  UNL     1       0.201   1.754  -3.204  1.00  0.00    +0.072 C
ATOM     42 O42  UNL     1       0.311   1.488  -4.603  1.00  0.00    -0.394 OA
ATOM     43 H43  UNL     1       5.231  -3.939   0.021  1.00  0.00    +0.211 HD
ATOM     44 H44  UNL     1       2.909  -2.615   0.931  1.00  0.00    +0.069 H
ATOM     45 H45  UNL     1       2.880  -3.778  -0.427  1.00  0.00    +0.069 H
ATOM     46 H46  UNL     1       3.902  -0.503  -2.850  1.00  0.00    +0.110 H
ATOM     47 H47  UNL     1       4.258   1.825  -2.135  1.00  0.00    +0.070 H
ATOM     48 H48  UNL     1       5.569   0.039  -1.076  1.00  0.00    +0.211 HD
ATOM     49 H49  UNL     1       2.847   1.188   0.494  1.00  0.00    +0.066 H
ATOM     50 H50  UNL     1       4.403   2.844   0.284  1.00  0.00    +0.211 HD
ATOM     51 H51  UNL     1       1.246   3.053  -0.987  1.00  0.00    +0.066 H
ATOM     52 H52  UNL     1       0.675   2.422   1.242  1.00  0.00    +0.095 H
ATOM     53 H53  UNL     1      -2.690   3.717   0.804  1.00  0.00    +0.076 H
ATOM     54 H54  UNL     1       0.652   5.788   1.188  1.00  0.00    +0.296 HD
ATOM     55 H55  UNL     1      -0.707   3.266   3.081  1.00  0.00    +0.066 H
ATOM     56 H56  UNL     1      -2.750   2.980   4.136  1.00  0.00    +0.211 HD
ATOM     57 H57  UNL     1      -2.771   1.207   2.159  1.00  0.00    +0.066 H
ATOM     58 H58  UNL     1      -1.765   0.006   3.831  1.00  0.00    +0.211 HD
ATOM     59 H59  UNL     1       0.111   0.390   2.313  1.00  0.00    +0.069 H
ATOM     60 H60  UNL     1       0.609  -1.058   0.710  1.00  0.00    +0.066 H
ATOM     61 H61  UNL     1      -0.764  -0.747  -1.458  1.00  0.00    +0.065 H
ATOM     62 H62  UNL     1       0.978  -1.826  -1.800  1.00  0.00    +0.211 HD
ATOM     63 H63  UNL     1      -2.136  -2.761  -2.101  1.00  0.00    +0.061 H
ATOM     64 H64  UNL     1      -3.080  -0.817  -0.076  1.00  0.00    +0.164 HD
ATOM     65 H65  UNL     1      -6.130  -0.520  -1.696  1.00  0.00    +0.033 H
ATOM     66 H66  UNL     1      -6.121  -1.243  -0.060  1.00  0.00    +0.033 H
ATOM     67 H67  UNL     1      -5.058   0.132  -0.446  1.00  0.00    +0.033 H
ATOM     68 H68  UNL     1      -3.120  -4.092  -0.173  1.00  0.00    +0.094 H
ATOM     69 H69  UNL     1      -0.499  -4.215  -1.031  1.00  0.00    +0.213 HD
ATOM     70 H70  UNL     1       0.145  -3.374   1.185  1.00  0.00    +0.066 H
ATOM     71 H71  UNL     1      -0.512  -3.366   3.496  1.00  0.00    +0.059 H
ATOM     72 H72  UNL     1       0.391  -1.864   3.223  1.00  0.00    +0.059 H
ATOM     73 H73  UNL     1      -2.421  -2.162   3.086  1.00  0.00    +0.210 HD
ATOM     74 H74  UNL     1       2.277   2.248  -3.107  1.00  0.00    +0.066 H
ATOM     75 H75  UNL     1      -0.527   1.049  -2.796  1.00  0.00    +0.059 H
ATOM     76 H76  UNL     1      -0.186   2.771  -3.083  1.00  0.00    +0.059 H
ATOM     77 H77  UNL     1       0.694   0.594  -4.678  1.00  0.00    +0.210 HD
TER