ATOM      1  C   UNL     1       7.577 -20.639   0.000  0.00  0.00    +0.034 A 
ATOM      2  C   UNL     1       9.620 -20.638   0.000  0.00  0.00    +0.067 A 
ATOM      3  C   UNL     1       8.600 -20.049   0.000  0.00  0.00    +0.136 A 
ATOM      4  C   UNL     1       9.620 -21.820   0.000  0.00  0.00    +0.006 A 
ATOM      5  C   UNL     1       7.577 -21.825   0.000  0.00  0.00    +0.003 A 
ATOM      6  C   UNL     1       8.603 -22.410   0.000  0.00  0.00    +0.000 A 
ATOM      7  C   UNL     1      10.640 -20.050   0.000  0.00  0.00    +0.139 A 
ATOM      8  C   UNL     1      11.664 -20.641   0.000  0.00  0.00    +0.068 A 
ATOM      9  C   UNL     1      10.647 -22.413   0.000  0.00  0.00    +0.000 A 
ATOM     10  C   UNL     1      11.666 -21.816   0.000  0.00  0.00    +0.006 A 
ATOM     11  C   UNL     1      12.677 -20.053   0.000  0.00  0.00    +0.139 A 
ATOM     12  C   UNL     1      13.697 -20.639   0.000  0.00  0.00    +0.068 A 
ATOM     13  C   UNL     1      12.690 -22.404   0.000  0.00  0.00    +0.000 A 
ATOM     14  C   UNL     1      13.702 -21.808   0.000  0.00  0.00    +0.006 A 
ATOM     15  C   UNL     1      14.705 -20.052   0.000  0.00  0.00    +0.139 A 
ATOM     16  C   UNL     1      15.721 -20.632   0.000  0.00  0.00    +0.068 A 
ATOM     17  C   UNL     1      14.722 -22.391   0.000  0.00  0.00    +0.000 A 
ATOM     18  C   UNL     1      15.728 -21.796   0.000  0.00  0.00    +0.006 A 
ATOM     19  C   UNL     1      16.722 -20.046   0.000  0.00  0.00    +0.139 A 
ATOM     20  C   UNL     1      17.734 -20.621   0.000  0.00  0.00    +0.068 A 
ATOM     21  C   UNL     1      16.744 -22.373   0.000  0.00  0.00    +0.000 A 
ATOM     22  C   UNL     1      17.744 -21.779   0.000  0.00  0.00    +0.006 A 
ATOM     23  C   UNL     1      18.729 -20.035   0.000  0.00  0.00    +0.139 A 
ATOM     24  C   UNL     1      19.737 -20.605   0.000  0.00  0.00    +0.067 A 
ATOM     25  C   UNL     1      18.756 -22.351   0.000  0.00  0.00    +0.000 A 
ATOM     26  C   UNL     1      19.750 -21.757   0.000  0.00  0.00    +0.006 A 
ATOM     27  C   UNL     1      20.726 -20.021   0.000  0.00  0.00    +0.136 A 
ATOM     28  C   UNL     1      21.730 -20.585   0.000  0.00  0.00    +0.034 A 
ATOM     29  C   UNL     1      20.758 -22.324   0.000  0.00  0.00    +0.000 A 
ATOM     30  C   UNL     1      21.745 -21.732   0.000  0.00  0.00    +0.003 A 
ATOM     31  C   UNL     1      22.712 -20.002   0.000  0.00  0.00    +0.003 A 
ATOM     32  C   UNL     1      23.713 -20.561   0.000  0.00  0.00    +0.000 A 
ATOM     33  C   UNL     1      22.750 -22.294   0.000  0.00  0.00    +0.000 A 
ATOM     34  C   UNL     1      23.731 -21.702   0.000  0.00  0.00    +0.000 A 
ATOM     35  C   UNL     1       6.553 -22.416   0.000  0.00  0.00    +0.000 A 
ATOM     36  C   UNL     1       5.525 -21.823   0.000  0.00  0.00    +0.000 A 
ATOM     37  C   UNL     1       6.545 -20.044   0.000  0.00  0.00    +0.003 A 
ATOM     38  C   UNL     1       5.522 -20.643   0.000  0.00  0.00    +0.000 A 
ATOM     39  C   UNL     1       4.496 -20.057   0.000  0.00  0.00    +0.000 A 
ATOM     40  C   UNL     1       4.488 -18.872   0.000  0.00  0.00    +0.001 A 
ATOM     41  C   UNL     1       6.538 -18.853   0.000  0.00  0.00    +0.001 A 
ATOM     42  C   UNL     1       5.505 -18.273   0.000  0.00  0.00    +0.013 A 
ATOM     43  C   UNL     1      22.698 -18.859   0.000  0.00  0.00    +0.001 A 
ATOM     44  C   UNL     1      23.683 -18.272   0.000  0.00  0.00    +0.013 A 
ATOM     45  C   UNL     1      24.702 -19.972   0.000  0.00  0.00    +0.000 A 
ATOM     46  C   UNL     1      24.680 -18.826   0.000  0.00  0.00    +0.001 A 
ATOM     47  C   UNL     1       3.466 -18.292   0.000  0.00  0.00    +0.000 A 
ATOM     48  C   UNL     1       3.455 -17.112   0.000  0.00  0.00    +0.001 A 
ATOM     49  C   UNL     1       5.495 -17.089   0.000  0.00  0.00    +0.045 A 
ATOM     50  C   UNL     1       4.465 -16.515   0.000  0.00  0.00    +0.013 A 
ATOM     51  C   UNL     1      23.666 -17.135   0.000  0.00  0.00    +0.045 A 
ATOM     52  C   UNL     1      24.644 -16.548   0.000  0.00  0.00    +0.013 A 
ATOM     53  C   UNL     1      25.662 -18.238   0.000  0.00  0.00    +0.000 A 
ATOM     54  C   UNL     1      25.637 -17.098   0.000  0.00  0.00    +0.001 A 
ATOM     55  C   UNL     1       4.449 -15.339   0.000  0.00  0.00    -0.002 C 
ATOM     56  C   UNL     1       5.462 -14.735   0.000  0.00  0.00    -0.005 C 
ATOM     57  N   UNL     1       6.511 -16.482   0.000  0.00  0.00    -0.329 N 
ATOM     58  C   UNL     1       6.487 -15.305   0.000  0.00  0.00    +0.114 C 
ATOM     59  N   UNL     1      22.672 -16.581   0.000  0.00  0.00    -0.329 N 
ATOM     60  C   UNL     1      22.653 -15.440   0.000  0.00  0.00    +0.114 C 
ATOM     61  C   UNL     1      24.626 -15.403   0.000  0.00  0.00    -0.002 C 
ATOM     62  C   UNL     1      23.626 -14.854   0.000  0.00  0.00    -0.005 C 
ATOM     63  O   UNL     1       8.600 -18.873   0.000  0.00  0.00    -0.505 OA
ATOM     64  O   UNL     1      10.640 -18.875   0.000  0.00  0.00    -0.505 OA
ATOM     65  O   UNL     1      12.677 -18.878   0.000  0.00  0.00    -0.505 OA
ATOM     66  O   UNL     1      14.705 -18.876   0.000  0.00  0.00    -0.505 OA
ATOM     67  O   UNL     1      16.722 -18.870   0.000  0.00  0.00    -0.505 OA
ATOM     68  O   UNL     1      18.729 -18.860   0.000  0.00  0.00    -0.505 OA
ATOM     69  O   UNL     1      20.726 -18.845   0.000  0.00  0.00    -0.505 OA
ATOM     70  H   UNL     1       7.582 -18.285   0.000  0.00  0.00    +0.292 HD
ATOM     71  H   UNL     1       9.622 -18.287   0.000  0.00  0.00    +0.292 HD
ATOM     72  H   UNL     1      11.659 -18.290   0.000  0.00  0.00    +0.292 HD
ATOM     73  H   UNL     1      13.687 -18.288   0.000  0.00  0.00    +0.292 HD
ATOM     74  H   UNL     1      15.704 -18.282   0.000  0.00  0.00    +0.292 HD
ATOM     75  H   UNL     1      17.711 -18.272   0.000  0.00  0.00    +0.292 HD
ATOM     76  H   UNL     1      19.708 -18.257   0.000  0.00  0.00    +0.292 HD
ATOM     77  H   UNL     1       7.529 -17.070   0.000  0.00  0.00    +0.147 HD
ATOM     78  H   UNL     1      21.654 -17.169   0.000  0.00  0.00    +0.147 HD
ATOM     79  C   UNL     1      11.664 -21.941   1.500  0.00  0.00    +0.270 C 
ATOM     80  O   UNL     1      11.664 -23.141   1.500  0.00  0.00    -0.500 OA
ATOM     81  O   UNL     1      12.764 -22.541   1.500  0.00  0.00    -0.390 OA
ATOM     82  H   UNL     1      13.734 -22.541   1.500  0.00  0.00    +0.450 HD
ATOM     83  C   UNL     1      13.697 -21.939   1.500  0.00  0.00    +0.270 C 
ATOM     84  O   UNL     1      13.697 -23.139   1.500  0.00  0.00    -0.500 OA
ATOM     85  O   UNL     1      14.797 -22.539   1.500  0.00  0.00    -0.390 OA
ATOM     86  H   UNL     1      15.767 -22.539   1.500  0.00  0.00    +0.450 HD
ATOM     87  C   UNL     1      15.721 -21.932   1.500  0.00  0.00    +0.270 C 
ATOM     88  O   UNL     1      15.721 -23.132   1.500  0.00  0.00    -0.500 OA
ATOM     89  O   UNL     1      16.821 -22.532   1.500  0.00  0.00    -0.390 OA
ATOM     90  H   UNL     1      17.791 -22.532   1.500  0.00  0.00    +0.450 HD
ATOM     91  C   UNL     1      17.734 -21.921   1.500  0.00  0.00    +0.270 C 
ATOM     92  O   UNL     1      17.734 -23.121   1.500  0.00  0.00    -0.500 OA
ATOM     93  O   UNL     1      18.834 -22.521   1.500  0.00  0.00    -0.390 OA
ATOM     94  H   UNL     1      19.804 -22.521   1.500  0.00  0.00    +0.450 HD
ATOM     95  C   UNL     1      11.664 -21.941  -1.500  0.00  0.00    +0.270 C 
ATOM     96  O   UNL     1      11.664 -23.141  -1.500  0.00  0.00    -0.500 OA
ATOM     97  O   UNL     1      12.764 -22.541  -1.500  0.00  0.00    -0.390 OA
ATOM     98  H   UNL     1      13.734 -22.541  -1.500  0.00  0.00    +0.450 HD
ATOM     99  C   UNL     1      13.697 -21.939  -1.500  0.00  0.00    +0.270 C 
ATOM    100  O   UNL     1      13.697 -23.139  -1.500  0.00  0.00    -0.500 OA
ATOM    101  O   UNL     1      14.797 -22.539  -1.500  0.00  0.00    -0.390 OA
ATOM    102  H   UNL     1      15.767 -22.539  -1.500  0.00  0.00    +0.450 HD
ATOM    103  C   UNL     1      15.721 -21.932  -1.500  0.00  0.00    +0.270 C 
ATOM    104  O   UNL     1      15.721 -23.132  -1.500  0.00  0.00    -0.500 OA
ATOM    105  O   UNL     1      16.821 -22.532  -1.500  0.00  0.00    -0.390 OA
ATOM    106  H   UNL     1      17.791 -22.532  -1.500  0.00  0.00    +0.450 HD
ATOM    107  C   UNL     1      17.734 -21.921  -1.500  0.00  0.00    +0.270 C 
ATOM    108  O   UNL     1      17.734 -23.121  -1.500  0.00  0.00    -0.500 OA
ATOM    109  O   UNL     1      18.834 -22.521  -1.500  0.00  0.00    -0.390 OA
ATOM    110  H   UNL     1      19.804 -22.521  -1.500  0.00  0.00    +0.450 HD
TER 