REMARK  Name = 
REMARK                            x       y       z     vdW  Elec       q    Type
REMARK                         _______ _______ _______ _____ _____    ______ ____
ATOM      1  O   UNL     1      -6.315   1.286  -2.019  0.00  0.00    -0.480 OA
ATOM      2  C   UNL     1      -6.514   0.412  -1.015  0.00  0.00    +0.310 C 
ATOM      3  O   UNL     1      -7.050  -0.664  -1.215  0.00  0.00    -0.251 OA
ATOM      4  C   UNL     1      -6.000   0.935   0.304  0.00  0.00    +0.118 C 
ATOM      5  C   UNL     1      -6.953   0.467   1.417  0.00  0.00    +0.137 C 
ATOM      6  N   UNL     1      -8.252   1.113   1.359  0.00  0.00    -0.336 N 
ATOM      7  C   UNL     1      -8.557   2.351   1.851  0.00  0.00    +0.106 A 
ATOM      8  C   UNL     1      -9.893   2.522   1.573  0.00  0.00    +0.130 A 
ATOM      9  N   UNL     1     -10.400   1.420   0.935  0.00  0.00    -0.244 NA
ATOM     10  C   UNL     1      -9.392   0.584   0.827  0.00  0.00    +0.199 A 
ATOM     11  C   UNL     1      -4.562   0.457   0.600  0.00  0.00    +0.031 C 
ATOM     12  C   UNL     1      -3.482   1.065  -0.321  0.00  0.00    +0.099 C 
ATOM     13  C   UNL     1      -3.325   0.410  -1.683  0.00  0.00    +0.308 C 
ATOM     14  O   UNL     1      -2.695   0.874  -2.620  0.00  0.00    -0.251 OA
ATOM     15  O   UNL     1      -3.899  -0.798  -1.791  0.00  0.00    -0.480 OA
ATOM     16  C   UNL     1      -2.092   1.199   0.354  0.00  0.00    +0.029 C 
ATOM     17  C   UNL     1      -1.416  -0.026   1.020  0.00  0.00    +0.099 C 
ATOM     18  C   UNL     1      -2.026  -0.290   2.386  0.00  0.00    +0.308 C 
ATOM     19  O   UNL     1      -2.040   0.500   3.316  0.00  0.00    -0.251 OA
ATOM     20  O   UNL     1      -2.622  -1.486   2.518  0.00  0.00    -0.480 OA
ATOM     21  C   UNL     1      -1.318  -1.261   0.105  0.00  0.00    +0.029 C 
ATOM     22  C   UNL     1      -0.296  -2.332   0.555  0.00  0.00    +0.099 C 
ATOM     23  C   UNL     1      -0.428  -3.607  -0.255  0.00  0.00    +0.308 C 
ATOM     24  O   UNL     1      -0.216  -4.737   0.155  0.00  0.00    -0.251 OA
ATOM     25  O   UNL     1      -0.768  -3.408  -1.541  0.00  0.00    -0.480 OA
ATOM     26  C   UNL     1       1.179  -1.877   0.638  0.00  0.00    +0.029 C 
ATOM     27  C   UNL     1       1.774  -1.187  -0.608  0.00  0.00    +0.099 C 
ATOM     28  C   UNL     1       2.099  -2.116  -1.761  0.00  0.00    +0.308 C 
ATOM     29  O   UNL     1       2.159  -1.792  -2.936  0.00  0.00    -0.251 OA
ATOM     30  O   UNL     1       2.434  -3.361  -1.385  0.00  0.00    -0.480 OA
ATOM     31  C   UNL     1       3.017  -0.310  -0.301  0.00  0.00    +0.029 C 
ATOM     32  C   UNL     1       4.330  -1.033   0.060  0.00  0.00    +0.099 C 
ATOM     33  C   UNL     1       4.241  -1.714   1.409  0.00  0.00    +0.308 C 
ATOM     34  O   UNL     1       3.715  -1.275   2.417  0.00  0.00    -0.251 OA
ATOM     35  O   UNL     1       4.859  -2.910   1.420  0.00  0.00    -0.480 OA
ATOM     36  C   UNL     1       5.566  -0.099   0.125  0.00  0.00    +0.031 C 
ATOM     37  C   UNL     1       5.958   0.554  -1.219  0.00  0.00    +0.118 C 
ATOM     38  C   UNL     1       5.322   1.897  -1.512  0.00  0.00    +0.310 C 
ATOM     39  O   UNL     1       5.471   2.522  -2.551  0.00  0.00    -0.251 OA
ATOM     40  O   UNL     1       4.580   2.408  -0.518  0.00  0.00    -0.480 OA
ATOM     41  C   UNL     1       7.483   0.730  -1.356  0.00  0.00    +0.137 C 
ATOM     42  N   UNL     1       8.084   1.638  -0.399  0.00  0.00    -0.336 N 
ATOM     43  C   UNL     1       8.597   1.309   0.824  0.00  0.00    +0.106 A 
ATOM     44  C   UNL     1       9.069   2.493   1.341  0.00  0.00    +0.130 A 
ATOM     45  N   UNL     1       8.877   3.521   0.454  0.00  0.00    -0.244 NA
ATOM     46  C   UNL     1       8.300   2.974  -0.592  0.00  0.00    +0.199 A 
ATOM     47  H   UNL     1      -6.724   0.863  -2.805  0.00  0.00    +0.295 HD
ATOM     48  H   UNL     1      -3.666  -1.099  -2.696  0.00  0.00    +0.295 HD
ATOM     49  H   UNL     1      -2.931  -1.502   3.450  0.00  0.00    +0.295 HD
ATOM     50  H   UNL     1      -0.803  -4.314  -1.915  0.00  0.00    +0.295 HD
ATOM     51  H   UNL     1       2.659  -3.822  -2.221  0.00  0.00    +0.295 HD
ATOM     52  H   UNL     1       4.728  -3.245   2.333  0.00  0.00    +0.295 HD
ATOM     53  H   UNL     1       4.301   3.292  -0.839  0.00  0.00    +0.295 HD
TER 
