MODEL        1
USER    Run = 1
USER
USER    Estimated Free Energy of Binding    =  -5.63 kcal/mol  [=(1)+(2)+(3)-(4)]
USER
USER    (1) Final Intermolecular Energy     =  -5.63 kcal/mol
USER        vdW + Hbond + desolv Energy     =  +2.37 kcal/mol
USER        Electrostatic Energy            =  -8.00 kcal/mol
USER        Moving Ligand-Fixed Receptor    =  -5.63 kcal/mol
USER        Moving Ligand-Moving Receptor   =  +0.00 kcal/mol
USER    (2) Final Total Internal Energy     =  +0.00 kcal/mol
USER    (3) Torsional Free Energy           =  +0.00 kcal/mol
USER    (4) Unbound System's Energy         =  +0.00 kcal/mol
USER
USER
USER                              x       y       z     vdW  Elec       q    Type
USER                           _______ _______ _______ _____ _____    ______ ____
ROOT
ATOM      1 V1   LIG A   1       2.426   2.939   4.088 +0.42 +2.18    +1.500 V  
ATOM      2 V2   LIG A   1       2.855   0.166   2.788 +0.56 +3.21    +1.500 V  
ATOM      3 V3   LIG A   1       2.159   0.379   5.794 +0.30 +1.58    +1.500 V  
ATOM      4 V4   LIG A   1       4.476   2.390   6.343 +0.10 +0.95    +1.500 V  
ATOM      5 V5   LIG A   1       5.333   2.281   3.386 +0.28 +1.61    +1.500 V  
ATOM      6 O1   LIG A   1       1.374   4.110   3.780 -0.07 -1.39    -0.800 OA 
ATOM      7 O2   LIG A   1       1.936   1.631   2.728 -0.09 -1.99    -0.750 OA 
ATOM      8 O3   LIG A   1       1.286   1.726   5.291 -0.03 -1.02    -0.750 OA 
ATOM      9 O4   LIG A   1       3.176   3.474   5.697 +0.05 -0.61    -0.750 OA 
ATOM     10 O5   LIG A   1       3.884   3.376   3.126 +0.00 -1.04    -0.750 OA 
ATOM     11 O6   LIG A   1       3.746   1.102   4.589 +0.06 -0.83    -0.750 OA 
ATOM     12 O7   LIG A   1       4.197  -1.219   3.501 -0.00 -1.00    -0.750 OA 
ATOM     13 O8   LIG A   1       1.869  -0.689   4.173 -0.04 -1.35    -0.750 OA 
ATOM     14 O9   LIG A   1       4.441   1.073   2.019 -0.00 -1.52    -0.750 OA 
ATOM     15 O10  LIG A   1       5.698   2.897   5.018 +0.03 -0.50    -0.750 OA 
ATOM     16 O11  LIG A   1       2.417  -0.677   1.492 -0.16 -2.54    -0.800 OA 
ATOM     17 O12  LIG A   1       1.151  -0.570   6.780 +0.02 -0.67    -0.750 OA 
ATOM     18 O13  LIG A   1       5.023   3.178   7.621 +0.00 -0.36    -0.800 OA 
ATOM     19 O14  LIG A   1       6.487   2.904   2.476 +0.01 -0.79    -0.800 OA 
ATOM     20 V6   LIG A   1       5.218  -0.385   4.863 +0.20 +1.21    +1.500 V  
ATOM     21 O15  LIG A   1       6.091  -1.732   5.365 +0.02 -0.46    -0.750 OA 
ATOM     22 V7   LIG A   1       4.951  -2.946   6.568 +0.06 +0.81    +1.500 V  
ATOM     23 O16  LIG A   1       6.004  -4.117   6.876 +0.01 -0.34    -0.800 OA 
ATOM     24 O17  LIG A   1       5.441  -1.637   7.929 +0.00 -0.32    -0.750 OA 
ATOM     25 V8   LIG A   1       4.523  -0.172   7.868 +0.02 +0.73    +1.500 V  
ATOM     26 O18  LIG A   1       3.632  -1.109   6.067 +0.04 -0.59    -0.750 OA 
ATOM     27 O19  LIG A   1       4.202  -3.480   4.960 +0.03 -0.60    -0.750 OA 
ATOM     28 V9   LIG A   1       2.902  -2.396   4.314 +0.35 +1.94    +1.500 V  
ATOM     29 V10  LIG A   1       2.045  -2.287   7.271 +0.11 +1.00    +1.500 V  
ATOM     30 O20  LIG A   1       3.494  -3.383   7.529 +0.01 -0.38    -0.750 OA 
ATOM     31 O21  LIG A   1       2.936  -1.079   8.638 +0.01 -0.36    -0.750 OA 
ATOM     32 O22  LIG A   1       3.181   1.213   7.155 +0.03 -0.49    -0.750 OA 
ATOM     33 O23  LIG A   1       1.679  -2.904   5.638 +0.00 -0.78    -0.750 OA 
ATOM     34 O24  LIG A   1       2.354  -3.184   3.036 -0.03 -1.52    -0.800 OA 
ATOM     35 O25  LIG A   1       0.890  -2.910   8.179 +0.02 -0.45    -0.800 OA 
ATOM     36 O26  LIG A   1       5.508   0.683   6.483 +0.02 -0.42    -0.750 OA 
ATOM     37 O27  LIG A   1       4.960   0.670   9.164 +0.00 -0.30    -0.800 OA 
ATOM     38 O28  LIG A   1       6.225   0.563   3.876 +0.04 -0.63    -0.750 OA 
ENDROOT
TORSDOF 0
TER
ENDMDL
