AutoDock-GPU version: v1.6|Release|x64

**********************************************************
**    AutoDock-GPU AUTODOCKTOOLS-COMPATIBLE DLG FILE    **
**********************************************************


    DOCKING PARAMETERS
    ________________________


Ligand file:                               O20V10.pdbqt
Grid fld file:                             Hidrogel2_PAA.maps.fld

Random seed:                               1782269582, 64864
Number of runs:                            20
Number of energy evaluations:              1132076
Number of generations:                     42000
Size of population:                        150
Rate of crossover:                         80.000000%
Tournament selection probability limit:    60.000000%
Rate of mutation:                          2.000000%
Maximal allowed delta movement:            +/- 6.000000A
Maximal allowed delta angle:               +/- 90.000000

Rate of local search:                      100.000000%
Maximal number of local search iterations: 300
Rho lower bound:                           0.010000
Spread of local search delta movement:     2.000000A
Spread of local search delta angle:        74.999999
Limit of consecutive successes/failures:   4

Handle symmetry during clustering:         YES
RMSD tolerance:                            2.000000A

Program call in command line was:          D:\Programas\AutoDock-GPU.exe -M Hidrogel2_PAA.maps.fld -L O20V10.pdbqt --nrun 20 --resnam O20V10_PAA 


    GRID PARAMETERS
    ________________________


Receptor name:                             Hidrogel2_PAA
Number of grid points (x, y, z):           53, 53, 53
Grid center (x, y, z):                     -0.080000, -0.070000, -0.020000A
Grid size (x, y, z):                       19.500000, 19.500000, 19.500000A
Grid spacing:                              0.375000A


    LIGAND PARAMETERS
    ________________________


Ligand name:                               O20V10
Number of atoms:                           38
Number of rotatable bonds:                 0
Number of atom types:                      2


    DUMMY DATA (only for ADT-compatibility)
    ________________________


DPF> outlev 1
DPF> ga_run 20
DPF> fld Hidrogel2_PAA.maps.fld
DPF> move O20V10.pdbqt


    COUNTER STATES
    ________________________


Number of energy evaluations performed:    200808
Number of generations used:                30


    INPUT LIGAND PDBQT FILE:
    ________________________


INPUT-LIGAND-PDBQT: ROOT
INPUT-LIGAND-PDBQT: ATOM      1 V1   LIG A   1       2.120   5.955  -3.319  1.00  0.00    +1.500 Zn
INPUT-LIGAND-PDBQT: ATOM      2 V2   LIG A   1       3.966   4.593  -1.245  1.00  0.00    +1.500 Zn
INPUT-LIGAND-PDBQT: ATOM      3 V3   LIG A   1       0.901   4.221  -1.074  1.00  0.00    +1.500 Zn
INPUT-LIGAND-PDBQT: ATOM      4 V4   LIG A   1       0.372   7.291  -1.140  1.00  0.00    +1.500 Zn
INPUT-LIGAND-PDBQT: ATOM      5 V5   LIG A   1       3.397   7.856  -1.286  1.00  0.00    +1.500 Zn
INPUT-LIGAND-PDBQT: ATOM      6 O1   LIG A   1       2.029   5.823  -4.915  1.00  0.00    -0.800 OA
INPUT-LIGAND-PDBQT: ATOM      7 O2   LIG A   1       3.602   4.749  -2.929  1.00  0.00    -0.750 OA
INPUT-LIGAND-PDBQT: ATOM      8 O3   LIG A   1       0.995   4.334  -2.749  1.00  0.00    -0.750 OA
INPUT-LIGAND-PDBQT: ATOM      9 O4   LIG A   1       0.584   6.903  -2.897  1.00  0.00    -0.750 OA
INPUT-LIGAND-PDBQT: ATOM     10 O5   LIG A   1       3.208   7.363  -3.043  1.00  0.00    -0.750 OA
INPUT-LIGAND-PDBQT: ATOM     11 O6   LIG A   1       2.192   5.900  -1.004  1.00  0.00    -0.750 OA
INPUT-LIGAND-PDBQT: ATOM     12 O7   LIG A   1       3.752   4.833   0.786  1.00  0.00    -0.750 OA
INPUT-LIGAND-PDBQT: ATOM     13 O8   LIG A   1       2.623   3.315  -0.817  1.00  0.00    -0.750 OA
INPUT-LIGAND-PDBQT: ATOM     14 O9   LIG A   1       4.801   6.391  -1.210  1.00  0.00    -0.750 OA
INPUT-LIGAND-PDBQT: ATOM     15 O10  LIG A   1       1.760   8.548  -1.146  1.00  0.00    -0.750 OA
INPUT-LIGAND-PDBQT: ATOM     16 O11  LIG A   1       5.308   3.712  -1.169  1.00  0.00    -0.800 OA
INPUT-LIGAND-PDBQT: ATOM     17 O12  LIG A   1      -0.042   2.861  -0.685  1.00  0.00    -0.750 OA
INPUT-LIGAND-PDBQT: ATOM     18 O13  LIG A   1      -0.924   8.226  -1.114  1.00  0.00    -0.800 OA
INPUT-LIGAND-PDBQT: ATOM     19 O14  LIG A   1       4.350   9.136  -1.318  1.00  0.00    -0.800 OA
INPUT-LIGAND-PDBQT: ATOM     20 V6   LIG A   1       2.444   6.174   1.074  1.00  0.00    +1.500 Zn
INPUT-LIGAND-PDBQT: ATOM     21 O15  LIG A   1       2.351   6.061   2.749  1.00  0.00    -0.750 OA
INPUT-LIGAND-PDBQT: ATOM     22 V7   LIG A   1       1.225   4.439   3.319  1.00  0.00    +1.500 Zn
INPUT-LIGAND-PDBQT: ATOM     23 O16  LIG A   1       1.317   4.572   4.915  1.00  0.00    -0.800 OA
INPUT-LIGAND-PDBQT: ATOM     24 O17  LIG A   1      -0.257   5.646   2.929  1.00  0.00    -0.750 OA
INPUT-LIGAND-PDBQT: ATOM     25 V8   LIG A   1      -0.621   5.802   1.245  1.00  0.00    +1.500 Zn
INPUT-LIGAND-PDBQT: ATOM     26 O18  LIG A   1       1.154   4.495   1.004  1.00  0.00    -0.750 OA
INPUT-LIGAND-PDBQT: ATOM     27 O19  LIG A   1       2.761   3.492   2.897  1.00  0.00    -0.750 OA
INPUT-LIGAND-PDBQT: ATOM     28 V9   LIG A   1       2.973   3.104   1.140  1.00  0.00    +1.500 Zn
INPUT-LIGAND-PDBQT: ATOM     29 V10  LIG A   1      -0.052   2.539   1.286  1.00  0.00    +1.500 Zn
INPUT-LIGAND-PDBQT: ATOM     30 O20  LIG A   1       0.138   3.032   3.043  1.00  0.00    -0.750 OA
INPUT-LIGAND-PDBQT: ATOM     31 O21  LIG A   1      -1.456   4.004   1.210  1.00  0.00    -0.750 OA
INPUT-LIGAND-PDBQT: ATOM     32 O22  LIG A   1      -0.407   5.562  -0.786  1.00  0.00    -0.750 OA
INPUT-LIGAND-PDBQT: ATOM     33 O23  LIG A   1       1.586   1.847   1.146  1.00  0.00    -0.750 OA
INPUT-LIGAND-PDBQT: ATOM     34 O24  LIG A   1       4.269   2.169   1.114  1.00  0.00    -0.800 OA
INPUT-LIGAND-PDBQT: ATOM     35 O25  LIG A   1      -1.004   1.259   1.318  1.00  0.00    -0.800 OA
INPUT-LIGAND-PDBQT: ATOM     36 O26  LIG A   1       0.722   7.080   0.817  1.00  0.00    -0.750 OA
INPUT-LIGAND-PDBQT: ATOM     37 O27  LIG A   1      -1.962   6.682   1.169  1.00  0.00    -0.800 OA
INPUT-LIGAND-PDBQT: ATOM     38 O28  LIG A   1       3.387   7.533   0.685  1.00  0.00    -0.750 OA
INPUT-LIGAND-PDBQT: ENDROOT
INPUT-LIGAND-PDBQT: TORSDOF 0


    FINAL DOCKED STATE:
    ________________________


Run:   1 / 20
Time taken for this run:   0.007s

DOCKED: MODEL        1
DOCKED: USER    Run = 1
DOCKED: USER
DOCKED: USER    Estimated Free Energy of Binding    =  -0.25 kcal/mol  [=(1)+(2)+(3)-(4)]
DOCKED: USER
DOCKED: USER    (1) Final Intermolecular Energy     =  -0.25 kcal/mol
DOCKED: USER        vdW + Hbond + desolv Energy     =  +0.01 kcal/mol
DOCKED: USER        Electrostatic Energy            =  -0.26 kcal/mol
DOCKED: USER        Moving Ligand-Fixed Receptor    =  -0.25 kcal/mol
DOCKED: USER        Moving Ligand-Moving Receptor   =  +0.00 kcal/mol
DOCKED: USER    (2) Final Total Internal Energy     =  +0.00 kcal/mol
DOCKED: USER    (3) Torsional Free Energy           =  +0.00 kcal/mol
DOCKED: USER    (4) Unbound System's Energy         =  +0.00 kcal/mol
DOCKED: USER
DOCKED: USER
DOCKED: USER                              x       y       z     vdW  Elec       q    Type
DOCKED: USER                           _______ _______ _______ _____ _____    ______ ____
DOCKED: ROOT
DOCKED: ATOM      1 V1   LIG A   1       3.180   5.894  -2.650 +0.16 +0.07    +1.500 Zn 
DOCKED: ATOM      2 V2   LIG A   1       1.065   8.149  -2.586 +0.02 +0.02    +1.500 Zn 
DOCKED: ATOM      3 V3   LIG A   1       0.757   5.790  -4.561 +0.07 -0.00    +1.500 Zn 
DOCKED: ATOM      4 V4   LIG A   1       3.632   6.170  -5.701 +0.05 -0.02    +1.500 Zn 
DOCKED: ATOM      5 V5   LIG A   1       4.110   8.566  -3.823 +0.03 +0.00    +1.500 Zn 
DOCKED: ATOM      6 O1   LIG A   1       3.675   4.864  -1.525 -0.58 -0.34    -0.800 OA 
DOCKED: ATOM      7 O2   LIG A   1       1.869   6.936  -1.651 +0.02 -0.02    -0.750 OA 
DOCKED: ATOM      8 O3   LIG A   1       1.503   4.922  -3.329 +0.04 -0.02    -0.750 OA 
DOCKED: ATOM      9 O4   LIG A   1       3.943   5.211  -4.196 +0.00 +0.02    -0.750 OA 
DOCKED: ATOM     10 O5   LIG A   1       4.337   7.270  -2.544 +0.02 -0.01    -0.750 OA 
DOCKED: ATOM     11 O6   LIG A   1       2.237   7.275  -4.253 +0.01 -0.00    -0.750 OA 
DOCKED: ATOM     12 O7   LIG A   1       0.512   9.226  -4.249 +0.00 -0.00    -0.750 OA 
DOCKED: ATOM     13 O8   LIG A   1      -0.234   7.020  -3.397 +0.01 -0.00    -0.750 OA 
DOCKED: ATOM     14 O9   LIG A   1       2.683   9.296  -2.577 +0.01 -0.00    -0.750 OA 
DOCKED: ATOM     15 O10  LIG A   1       4.748   7.573  -5.159 +0.01 +0.01    -0.750 OA 
DOCKED: ATOM     16 O11  LIG A   1       0.179   8.989  -1.541 +0.00 -0.01    -0.800 OA 
DOCKED: ATOM     17 O12  LIG A   1      -0.616   4.924  -5.066 +0.03 +0.01    -0.750 OA 
DOCKED: ATOM     18 O13  LIG A   1       4.527   5.440  -6.805 +0.02 +0.01    -0.800 OA 
DOCKED: ATOM     19 O14  LIG A   1       5.271   9.625  -3.547 +0.01 +0.00    -0.800 OA 
DOCKED: ATOM     20 V6   LIG A   1       1.682   8.747  -5.661 +0.00 -0.00    +1.500 Zn 
DOCKED: ATOM     21 O15  LIG A   1       0.936   9.615  -6.893 +0.00 +0.00    -0.750 OA 
DOCKED: ATOM     22 V7   LIG A   1      -0.742   8.642  -7.572 +0.00 -0.00    +1.500 Zn 
DOCKED: ATOM     23 O16  LIG A   1      -1.236   9.673  -8.697 +0.00 +0.00    -0.800 OA 
DOCKED: ATOM     24 O17  LIG A   1       0.570   7.601  -8.571 +0.00 +0.00    -0.750 OA 
DOCKED: ATOM     25 V8   LIG A   1       1.374   6.387  -7.636 +0.00 -0.01    +1.500 Zn 
DOCKED: ATOM     26 O18  LIG A   1       0.202   7.262  -5.969 +0.00 +0.00    -0.750 OA 
DOCKED: ATOM     27 O19  LIG A   1      -1.504   9.325  -6.027 +0.00 +0.00    -0.750 OA 
DOCKED: ATOM     28 V9   LIG A   1      -1.193   8.366  -4.521 +0.00 +0.00    +1.500 Zn 
DOCKED: ATOM     29 V10  LIG A   1      -1.671   5.971  -6.399 +0.02 -0.01    +1.500 Zn 
DOCKED: ATOM     30 O20  LIG A   1      -1.898   7.268  -7.677 +0.00 +0.00    -0.750 OA 
DOCKED: ATOM     31 O21  LIG A   1      -0.244   5.241  -7.646 +0.00 +0.01    -0.750 OA 
DOCKED: ATOM     32 O22  LIG A   1       1.927   5.311  -5.974 +0.01 +0.01    -0.750 OA 
DOCKED: ATOM     33 O23  LIG A   1      -2.309   6.964  -5.062 +0.01 +0.00    -0.750 OA 
DOCKED: ATOM     34 O24  LIG A   1      -2.088   9.097  -3.417 +0.00 -0.00    -0.800 OA 
DOCKED: ATOM     35 O25  LIG A   1      -2.832   4.913  -6.675 +0.02 +0.01    -0.800 OA 
DOCKED: ATOM     36 O26  LIG A   1       2.673   7.517  -6.826 +0.00 +0.00    -0.750 OA 
DOCKED: ATOM     37 O27  LIG A   1       2.259   5.548  -8.681 +0.00 +0.00    -0.800 OA 
DOCKED: ATOM     38 O28  LIG A   1       3.054   9.613  -5.157 +0.00 +0.00    -0.750 OA 
DOCKED: ENDROOT
DOCKED: TORSDOF 0
DOCKED: TER
DOCKED: ENDMDL
________________________________________________________________________________


    FINAL DOCKED STATE:
    ________________________


Run:   2 / 20
Time taken for this run:   0.007s

DOCKED: MODEL        2
DOCKED: USER    Run = 2
DOCKED: USER
DOCKED: USER    Estimated Free Energy of Binding    =  -0.25 kcal/mol  [=(1)+(2)+(3)-(4)]
DOCKED: USER
DOCKED: USER    (1) Final Intermolecular Energy     =  -0.25 kcal/mol
DOCKED: USER        vdW + Hbond + desolv Energy     =  -0.01 kcal/mol
DOCKED: USER        Electrostatic Energy            =  -0.24 kcal/mol
DOCKED: USER        Moving Ligand-Fixed Receptor    =  -0.25 kcal/mol
DOCKED: USER        Moving Ligand-Moving Receptor   =  +0.00 kcal/mol
DOCKED: USER    (2) Final Total Internal Energy     =  +0.00 kcal/mol
DOCKED: USER    (3) Torsional Free Energy           =  +0.00 kcal/mol
DOCKED: USER    (4) Unbound System's Energy         =  +0.00 kcal/mol
DOCKED: USER
DOCKED: USER
DOCKED: USER                              x       y       z     vdW  Elec       q    Type
DOCKED: USER                           _______ _______ _______ _____ _____    ______ ____
DOCKED: ROOT
DOCKED: ATOM      1 V1   LIG A   1      -1.655   5.993  -6.385 +0.02 -0.01    +1.500 Zn 
DOCKED: ATOM      2 V2   LIG A   1       1.246   6.016  -7.458 +0.01 -0.01    +1.500 Zn 
DOCKED: ATOM      3 V3   LIG A   1       0.718   5.909  -4.413 +0.07 +0.00    +1.500 Zn 
DOCKED: ATOM      4 V4   LIG A   1      -1.158   8.396  -4.496 +0.00 +0.00    +1.500 Zn 
DOCKED: ATOM      5 V5   LIG A   1      -0.727   8.676  -7.534 +0.00 -0.00    +1.500 Zn 
DOCKED: ATOM      6 O1   LIG A   1      -2.868   4.969  -6.613 +0.02 +0.01    -0.800 OA 
DOCKED: ATOM      7 O2   LIG A   1      -0.271   5.185  -7.497 +0.00 +0.01    -0.750 OA 
DOCKED: ATOM      8 O3   LIG A   1      -0.638   5.033  -4.881 +0.03 +0.01    -0.750 OA 
DOCKED: ATOM      9 O4   LIG A   1      -2.273   7.060  -5.001 +0.01 +0.00    -0.750 OA 
DOCKED: ATOM     10 O5   LIG A   1      -1.898   7.267  -7.634 +0.00 +0.00    -0.750 OA 
DOCKED: ATOM     11 O6   LIG A   1       0.222   7.279  -5.951 +0.00 +0.00    -0.750 OA 
DOCKED: ATOM     12 O7   LIG A   1       2.657   7.389  -6.865 +0.00 +0.00    -0.750 OA 
DOCKED: ATOM     13 O8   LIG A   1       1.902   5.262  -5.839 +0.01 +0.01    -0.750 OA 
DOCKED: ATOM     14 O9   LIG A   1       0.528   7.478  -8.589 +0.00 +0.00    -0.750 OA 
DOCKED: ATOM     15 O10  LIG A   1      -1.456   9.374  -6.064 +0.00 +0.00    -0.750 OA 
DOCKED: ATOM     16 O11  LIG A   1       2.165   5.297  -8.563 +0.00 +0.01    -0.800 OA 
DOCKED: ATOM     17 O12  LIG A   1       1.501   5.053  -3.170 +0.04 -0.02    -0.750 OA 
DOCKED: ATOM     18 O13  LIG A   1      -2.013   9.216  -3.424 +0.00 -0.00    -0.800 OA 
DOCKED: ATOM     19 O14  LIG A   1      -1.182   9.672  -8.695 +0.00 +0.00    -0.800 OA 
DOCKED: ATOM     20 V6   LIG A   1       1.784   8.692  -5.801 +0.00 -0.00    +1.500 Zn 
DOCKED: ATOM     21 O15  LIG A   1       3.141   9.568  -5.334 +0.00 +0.00    -0.750 OA 
DOCKED: ATOM     22 V7   LIG A   1       4.158   8.608  -3.828 +0.03 +0.00    +1.500 Zn 
DOCKED: ATOM     23 O16  LIG A   1       5.371   9.633  -3.602 +0.01 +0.00    -0.800 OA 
DOCKED: ATOM     24 O17  LIG A   1       2.773   9.416  -2.717 +0.01 -0.00    -0.750 OA 
DOCKED: ATOM     25 V8   LIG A   1       1.256   8.585  -2.756 +0.01 +0.01    +1.500 Zn 
DOCKED: ATOM     26 O18  LIG A   1       2.280   7.322  -4.264 +0.01 -0.00    -0.750 OA 
DOCKED: ATOM     27 O19  LIG A   1       4.775   7.542  -5.213 +0.01 +0.01    -0.750 OA 
DOCKED: ATOM     28 V9   LIG A   1       3.660   6.206  -5.718 +0.05 -0.02    +1.500 Zn 
DOCKED: ATOM     29 V10  LIG A   1       3.229   5.925  -2.680 +0.16 +0.07    +1.500 Zn 
DOCKED: ATOM     30 O20  LIG A   1       4.401   7.334  -2.581 +0.02 -0.01    -0.750 OA 
DOCKED: ATOM     31 O21  LIG A   1       1.974   7.123  -1.625 +0.02 -0.02    -0.750 OA 
DOCKED: ATOM     32 O22  LIG A   1      -0.155   7.212  -3.349 +0.01 -0.00    -0.750 OA 
DOCKED: ATOM     33 O23  LIG A   1       3.959   5.227  -4.150 +0.00 +0.02    -0.750 OA 
DOCKED: ATOM     34 O24  LIG A   1       4.515   5.386  -6.790 +0.02 +0.01    -0.800 OA 
DOCKED: ATOM     35 O25  LIG A   1       3.684   4.929  -1.520 -0.58 -0.32    -0.800 OA 
DOCKED: ATOM     36 O26  LIG A   1       0.601   9.339  -4.375 +0.00 -0.00    -0.750 OA 
DOCKED: ATOM     37 O27  LIG A   1       0.338   9.303  -1.652 +0.00 -0.01    -0.800 OA 
DOCKED: ATOM     38 O28  LIG A   1       1.001   9.548  -7.044 +0.00 +0.00    -0.750 OA 
DOCKED: ENDROOT
DOCKED: TORSDOF 0
DOCKED: TER
DOCKED: ENDMDL
________________________________________________________________________________


    FINAL DOCKED STATE:
    ________________________


Run:   3 / 20
Time taken for this run:   0.007s

DOCKED: MODEL        3
DOCKED: USER    Run = 3
DOCKED: USER
DOCKED: USER    Estimated Free Energy of Binding    =  -0.24 kcal/mol  [=(1)+(2)+(3)-(4)]
DOCKED: USER
DOCKED: USER    (1) Final Intermolecular Energy     =  -0.24 kcal/mol
DOCKED: USER        vdW + Hbond + desolv Energy     =  -0.01 kcal/mol
DOCKED: USER        Electrostatic Energy            =  -0.23 kcal/mol
DOCKED: USER        Moving Ligand-Fixed Receptor    =  -0.24 kcal/mol
DOCKED: USER        Moving Ligand-Moving Receptor   =  +0.00 kcal/mol
DOCKED: USER    (2) Final Total Internal Energy     =  +0.00 kcal/mol
DOCKED: USER    (3) Torsional Free Energy           =  +0.00 kcal/mol
DOCKED: USER    (4) Unbound System's Energy         =  +0.00 kcal/mol
DOCKED: USER
DOCKED: USER
DOCKED: USER                              x       y       z     vdW  Elec       q    Type
DOCKED: USER                           _______ _______ _______ _____ _____    ______ ____
DOCKED: ROOT
DOCKED: ATOM      1 V1   LIG A   1       3.201   5.944  -2.693 +0.16 +0.07    +1.500 Zn 
DOCKED: ATOM      2 V2   LIG A   1       1.205   8.307  -2.687 +0.02 +0.01    +1.500 Zn 
DOCKED: ATOM      3 V3   LIG A   1       0.727   5.878  -4.540 +0.06 -0.00    +1.500 Zn 
DOCKED: ATOM      4 V4   LIG A   1       3.588   6.055  -5.763 +0.05 -0.02    +1.500 Zn 
DOCKED: ATOM      5 V5   LIG A   1       4.235   8.507  -4.012 +0.03 -0.00    +1.500 Zn 
DOCKED: ATOM      6 O1   LIG A   1       3.671   4.943  -1.531 -0.58 -0.31    -0.800 OA 
DOCKED: ATOM      7 O2   LIG A   1       1.970   7.098  -1.714 +0.02 -0.02    -0.750 OA 
DOCKED: ATOM      8 O3   LIG A   1       1.459   5.031  -3.285 +0.04 -0.02    -0.750 OA 
DOCKED: ATOM      9 O4   LIG A   1       3.888   5.152  -4.221 +0.00 +0.02    -0.750 OA 
DOCKED: ATOM     10 O5   LIG A   1       4.428   7.261  -2.679 +0.02 -0.01    -0.750 OA 
DOCKED: ATOM     11 O6   LIG A   1       2.288   7.297  -4.337 +0.01 -0.00    -0.750 OA 
DOCKED: ATOM     12 O7   LIG A   1       0.666   9.333  -4.385 +0.00 -0.00    -0.750 OA 
DOCKED: ATOM     13 O8   LIG A   1      -0.170   7.211  -3.412 +0.01 -0.00    -0.750 OA 
DOCKED: ATOM     14 O9   LIG A   1       2.879   9.367  -2.769 +0.01 -0.00    -0.750 OA 
DOCKED: ATOM     15 O10  LIG A   1       4.787   7.422  -5.314 +0.01 +0.01    -0.750 OA 
DOCKED: ATOM     16 O11  LIG A   1       0.390   9.239  -1.662 +0.00 -0.01    -0.800 OA 
DOCKED: ATOM     17 O12  LIG A   1      -0.700   5.062  -4.970 +0.03 +0.01    -0.750 OA 
DOCKED: ATOM     18 O13  LIG A   1       4.416   5.229  -6.851 +0.02 +0.01    -0.800 OA 
DOCKED: ATOM     19 O14  LIG A   1       5.455   9.516  -3.814 +0.01 +0.00    -0.800 OA 
DOCKED: ATOM     20 V6   LIG A   1       1.773   8.729  -5.800 +0.00 -0.00    +1.500 Zn 
DOCKED: ATOM     21 O15  LIG A   1       1.041   9.577  -7.054 +0.00 +0.00    -0.750 OA 
DOCKED: ATOM     22 V7   LIG A   1      -0.701   8.662  -7.647 +0.00 -0.00    +1.500 Zn 
DOCKED: ATOM     23 O16  LIG A   1      -1.171   9.665  -8.808 +0.00 +0.00    -0.800 OA 
DOCKED: ATOM     24 O17  LIG A   1       0.530   7.509  -8.626 +0.00 +0.00    -0.750 OA 
DOCKED: ATOM     25 V8   LIG A   1       1.295   6.300  -7.653 +0.00 -0.01    +1.500 Zn 
DOCKED: ATOM     26 O18  LIG A   1       0.212   7.310  -6.003 +0.00 +0.00    -0.750 OA 
DOCKED: ATOM     27 O19  LIG A   1      -1.388   9.455  -6.119 +0.00 +0.00    -0.750 OA 
DOCKED: ATOM     28 V9   LIG A   1      -1.088   8.551  -4.577 +0.00 +0.00    +1.500 Zn 
DOCKED: ATOM     29 V10  LIG A   1      -1.734   6.100  -6.328 +0.02 -0.01    +1.500 Zn 
DOCKED: ATOM     30 O20  LIG A   1      -1.928   7.346  -7.660 +0.00 +0.00    -0.750 OA 
DOCKED: ATOM     31 O21  LIG A   1      -0.379   5.240  -7.571 +0.00 +0.01    -0.750 OA 
DOCKED: ATOM     32 O22  LIG A   1       1.834   5.274  -5.955 +0.01 +0.01    -0.750 OA 
DOCKED: ATOM     33 O23  LIG A   1      -2.287   7.186  -5.025 +0.01 +0.00    -0.750 OA 
DOCKED: ATOM     34 O24  LIG A   1      -1.916   9.378  -3.489 +0.00 -0.00    -0.800 OA 
DOCKED: ATOM     35 O25  LIG A   1      -2.955   5.092  -6.526 +0.02 +0.01    -0.800 OA 
DOCKED: ATOM     36 O26  LIG A   1       2.670   7.396  -6.928 +0.00 +0.00    -0.750 OA 
DOCKED: ATOM     37 O27  LIG A   1       2.109   5.368  -8.677 +0.00 +0.01    -0.800 OA 
DOCKED: ATOM     38 O28  LIG A   1       3.200   9.545  -5.369 +0.00 +0.00    -0.750 OA 
DOCKED: ENDROOT
DOCKED: TORSDOF 0
DOCKED: TER
DOCKED: ENDMDL
________________________________________________________________________________


    FINAL DOCKED STATE:
    ________________________


Run:   4 / 20
Time taken for this run:   0.007s

DOCKED: MODEL        4
DOCKED: USER    Run = 4
DOCKED: USER
DOCKED: USER    Estimated Free Energy of Binding    =  -0.26 kcal/mol  [=(1)+(2)+(3)-(4)]
DOCKED: USER
DOCKED: USER    (1) Final Intermolecular Energy     =  -0.26 kcal/mol
DOCKED: USER        vdW + Hbond + desolv Energy     =  +0.01 kcal/mol
DOCKED: USER        Electrostatic Energy            =  -0.27 kcal/mol
DOCKED: USER        Moving Ligand-Fixed Receptor    =  -0.26 kcal/mol
DOCKED: USER        Moving Ligand-Moving Receptor   =  +0.00 kcal/mol
DOCKED: USER    (2) Final Total Internal Energy     =  +0.00 kcal/mol
DOCKED: USER    (3) Torsional Free Energy           =  +0.00 kcal/mol
DOCKED: USER    (4) Unbound System's Energy         =  +0.00 kcal/mol
DOCKED: USER
DOCKED: USER
DOCKED: USER                              x       y       z     vdW  Elec       q    Type
DOCKED: USER                           _______ _______ _______ _____ _____    ______ ____
DOCKED: ROOT
DOCKED: ATOM      1 V1   LIG A   1       3.259   5.859  -2.667 +0.17 +0.08    +1.500 Zn 
DOCKED: ATOM      2 V2   LIG A   1       1.135   8.106  -2.733 +0.02 +0.01    +1.500 Zn 
DOCKED: ATOM      3 V3   LIG A   1       0.978   5.764  -4.745 +0.07 -0.00    +1.500 Zn 
DOCKED: ATOM      4 V4   LIG A   1       3.924   6.165  -5.676 +0.06 -0.02    +1.500 Zn 
DOCKED: ATOM      5 V5   LIG A   1       4.258   8.545  -3.748 +0.03 +0.00    +1.500 Zn 
DOCKED: ATOM      6 O1   LIG A   1       3.677   4.821  -1.518 -0.58 -0.36    -0.800 OA 
DOCKED: ATOM      7 O2   LIG A   1       1.876   6.887  -1.754 +0.02 -0.02    -0.750 OA 
DOCKED: ATOM      8 O3   LIG A   1       1.638   4.888  -3.471 +0.04 -0.01    -0.750 OA 
DOCKED: ATOM      9 O4   LIG A   1       4.132   5.194  -4.160 +0.00 +0.03    -0.750 OA 
DOCKED: ATOM     10 O5   LIG A   1       4.399   7.238  -2.468 +0.02 -0.01    -0.750 OA 
DOCKED: ATOM     11 O6   LIG A   1       2.425   7.252  -4.320 +0.01 -0.00    -0.750 OA 
DOCKED: ATOM     12 O7   LIG A   1       0.697   9.196  -4.421 +0.00 -0.00    -0.750 OA 
DOCKED: ATOM     13 O8   LIG A   1      -0.099   6.980  -3.643 +0.01 -0.00    -0.750 OA 
DOCKED: ATOM     14 O9   LIG A   1       2.743   9.259  -2.599 +0.01 -0.00    -0.750 OA 
DOCKED: ATOM     15 O10  LIG A   1       4.993   7.567  -5.044 +0.01 +0.01    -0.750 OA 
DOCKED: ATOM     16 O11  LIG A   1       0.173   8.933  -1.746 +0.00 -0.01    -0.800 OA 
DOCKED: ATOM     17 O12  LIG A   1      -0.353   4.897  -5.353 +0.02 +0.01    -0.750 OA 
DOCKED: ATOM     18 O13  LIG A   1       4.899   5.447  -6.720 +0.02 +0.02    -0.800 OA 
DOCKED: ATOM     19 O14  LIG A   1       5.392   9.606  -3.381 +0.01 +0.00    -0.800 OA 
DOCKED: ATOM     20 V6   LIG A   1       1.965   8.734  -5.752 +0.00 -0.00    +1.500 Zn 
DOCKED: ATOM     21 O15  LIG A   1       1.305   9.610  -7.026 +0.00 +0.00    -0.750 OA 
DOCKED: ATOM     22 V7   LIG A   1      -0.317   8.638  -7.830 +0.00 -0.00    +1.500 Zn 
DOCKED: ATOM     23 O16  LIG A   1      -0.735   9.677  -8.978 +0.00 +0.00    -0.800 OA 
DOCKED: ATOM     24 O17  LIG A   1       1.067   7.610  -8.743 +0.00 +0.00    -0.750 OA 
DOCKED: ATOM     25 V8   LIG A   1       1.808   6.391  -7.764 +0.00 -0.01    +1.500 Zn 
DOCKED: ATOM     26 O18  LIG A   1       0.518   7.246  -6.176 +0.00 +0.00    -0.750 OA 
DOCKED: ATOM     27 O19  LIG A   1      -1.189   9.304  -6.337 +0.00 +0.00    -0.750 OA 
DOCKED: ATOM     28 V9   LIG A   1      -0.982   8.332  -4.821 +0.00 +0.00    +1.500 Zn 
DOCKED: ATOM     29 V10  LIG A   1      -1.315   5.952  -6.749 +0.01 -0.01    +1.500 Zn 
DOCKED: ATOM     30 O20  LIG A   1      -1.457   7.260  -8.029 +0.00 +0.00    -0.750 OA 
DOCKED: ATOM     31 O21  LIG A   1       0.200   5.239  -7.898 +0.00 +0.01    -0.750 OA 
DOCKED: ATOM     32 O22  LIG A   1       2.246   5.302  -6.076 +0.01 +0.01    -0.750 OA 
DOCKED: ATOM     33 O23  LIG A   1      -2.051   6.931  -5.452 +0.01 +0.00    -0.750 OA 
DOCKED: ATOM     34 O24  LIG A   1      -1.956   9.050  -3.777 +0.00 -0.00    -0.800 OA 
DOCKED: ATOM     35 O25  LIG A   1      -2.450   4.892  -7.116 +0.01 +0.01    -0.800 OA 
DOCKED: ATOM     36 O26  LIG A   1       3.042   7.518  -6.854 +0.00 +0.00    -0.750 OA 
DOCKED: ATOM     37 O27  LIG A   1       2.768   5.564  -8.750 +0.00 +0.01    -0.800 OA 
DOCKED: ATOM     38 O28  LIG A   1       3.294   9.600  -5.144 +0.00 +0.00    -0.750 OA 
DOCKED: ENDROOT
DOCKED: TORSDOF 0
DOCKED: TER
DOCKED: ENDMDL
________________________________________________________________________________


    FINAL DOCKED STATE:
    ________________________


Run:   5 / 20
Time taken for this run:   0.007s

DOCKED: MODEL        5
DOCKED: USER    Run = 5
DOCKED: USER
DOCKED: USER    Estimated Free Energy of Binding    =  +0.07 kcal/mol  [=(1)+(2)+(3)-(4)]
DOCKED: USER
DOCKED: USER    (1) Final Intermolecular Energy     =  +0.07 kcal/mol
DOCKED: USER        vdW + Hbond + desolv Energy     =  +0.22 kcal/mol
DOCKED: USER        Electrostatic Energy            =  -0.15 kcal/mol
DOCKED: USER        Moving Ligand-Fixed Receptor    =  +0.07 kcal/mol
DOCKED: USER        Moving Ligand-Moving Receptor   =  +0.00 kcal/mol
DOCKED: USER    (2) Final Total Internal Energy     =  +0.00 kcal/mol
DOCKED: USER    (3) Torsional Free Energy           =  +0.00 kcal/mol
DOCKED: USER    (4) Unbound System's Energy         =  +0.00 kcal/mol
DOCKED: USER
DOCKED: USER
DOCKED: USER                              x       y       z     vdW  Elec       q    Type
DOCKED: USER                           _______ _______ _______ _____ _____    ______ ____
DOCKED: ROOT
DOCKED: ATOM      1 V1   LIG A   1       8.159  -6.102   6.353 +0.02 +0.01    +1.500 Zn 
DOCKED: ATOM      2 V2   LIG A   1       5.892  -4.332   7.490 +0.02 +0.02    +1.500 Zn 
DOCKED: ATOM      3 V3   LIG A   1       5.481  -7.383   7.200 +0.01 +0.01    +1.500 Zn 
DOCKED: ATOM      4 V4   LIG A   1       6.325  -7.366   4.201 +0.04 +0.01    +1.500 Zn 
DOCKED: ATOM      5 V5   LIG A   1       6.761  -4.317   4.294 +0.15 +0.10    +1.500 Zn 
DOCKED: ATOM      6 O1   LIG A   1       9.658  -6.370   6.857 +0.00 -0.00    -0.800 OA 
DOCKED: ATOM      7 O2   LIG A   1       7.539  -4.826   7.690 +0.01 -0.01    -0.750 OA 
DOCKED: ATOM      8 O3   LIG A   1       7.129  -7.435   7.528 +0.00 -0.00    -0.750 OA 
DOCKED: ATOM      9 O4   LIG A   1       7.927  -7.398   5.048 +0.01 -0.00    -0.750 OA 
DOCKED: ATOM     10 O5   LIG A   1       8.316  -4.761   5.161 +0.02 -0.01    -0.750 OA 
DOCKED: ATOM     11 O6   LIG A   1       5.917  -5.815   5.843 +0.01 -0.01    -0.750 OA 
DOCKED: ATOM     12 O7   LIG A   1       3.988  -4.301   6.716 +0.02 -0.01    -0.750 OA 
DOCKED: ATOM     13 O8   LIG A   1       5.079  -5.832   8.333 +0.01 -0.00    -0.750 OA 
DOCKED: ATOM     14 O9   LIG A   1       6.372  -3.194   5.940 +0.02 -0.02    -0.750 OA 
DOCKED: ATOM     15 O10  LIG A   1       6.729  -5.785   3.282 +0.02 -0.01    -0.750 OA 
DOCKED: ATOM     16 O11  LIG A   1       5.653  -3.166   8.570 +0.01 -0.00    -0.800 OA 
DOCKED: ATOM     17 O12  LIG A   1       4.703  -8.509   8.209 +0.00 -0.00    -0.750 OA 
DOCKED: ATOM     18 O13  LIG A   1       6.483  -8.467   3.054 +0.01 +0.00    -0.800 OA 
DOCKED: ATOM     19 O14  LIG A   1       7.175  -3.161   3.274 +0.01 -0.03    -0.800 OA 
DOCKED: ATOM     20 V6   LIG A   1       3.999  -5.317   5.116 +0.13 +0.07    +1.500 Zn 
DOCKED: ATOM     21 O15  LIG A   1       2.351  -5.265   4.788 +0.04 -0.01    -0.750 OA 
DOCKED: ATOM     22 V7   LIG A   1       1.321  -6.599   5.965 +0.06 -0.01    +1.500 Zn 
DOCKED: ATOM     23 O16  LIG A   1      -0.178  -6.329   5.460 +0.04 +0.01    -0.800 OA 
DOCKED: ATOM     24 O17  LIG A   1       1.941  -7.875   4.626 +0.02 +0.01    -0.750 OA 
DOCKED: ATOM     25 V8   LIG A   1       3.587  -8.368   4.826 +0.03 -0.01    +1.500 Zn 
DOCKED: ATOM     26 O18  LIG A   1       3.563  -6.884   6.473 +0.01 -0.00    -0.750 OA 
DOCKED: ATOM     27 O19  LIG A   1       1.553  -5.303   7.269 +0.02 -0.00    -0.750 OA 
DOCKED: ATOM     28 V9   LIG A   1       3.155  -5.335   8.115 +0.02 +0.01    +1.500 Zn 
DOCKED: ATOM     29 V10  LIG A   1       2.718  -8.383   8.022 +0.00 +0.00    +1.500 Zn 
DOCKED: ATOM     30 O20  LIG A   1       1.164  -7.939   7.155 +0.00 +0.00    -0.750 OA 
DOCKED: ATOM     31 O21  LIG A   1       3.108  -9.507   6.377 +0.00 +0.00    -0.750 OA 
DOCKED: ATOM     32 O22  LIG A   1       5.492  -8.399   5.601 +0.01 -0.00    -0.750 OA 
DOCKED: ATOM     33 O23  LIG A   1       2.751  -6.915   9.034 +0.00 -0.00    -0.750 OA 
DOCKED: ATOM     34 O24  LIG A   1       2.997  -4.234   9.262 +0.00 -0.00    -0.800 OA 
DOCKED: ATOM     35 O25  LIG A   1       2.305  -9.539   9.042 +0.00 -0.00    -0.800 OA 
DOCKED: ATOM     36 O26  LIG A   1       4.401  -6.869   3.983 +0.03 -0.01    -0.750 OA 
DOCKED: ATOM     37 O27  LIG A   1       3.826  -9.534   3.747 +0.01 +0.01    -0.800 OA 
DOCKED: ATOM     38 O28  LIG A   1       4.777  -4.192   4.108 -0.56 -0.23    -0.750 OA 
DOCKED: ENDROOT
DOCKED: TORSDOF 0
DOCKED: TER
DOCKED: ENDMDL
________________________________________________________________________________


    FINAL DOCKED STATE:
    ________________________


Run:   6 / 20
Time taken for this run:   0.007s

DOCKED: MODEL        6
DOCKED: USER    Run = 6
DOCKED: USER
DOCKED: USER    Estimated Free Energy of Binding    =  +0.04 kcal/mol  [=(1)+(2)+(3)-(4)]
DOCKED: USER
DOCKED: USER    (1) Final Intermolecular Energy     =  +0.04 kcal/mol
DOCKED: USER        vdW + Hbond + desolv Energy     =  +0.22 kcal/mol
DOCKED: USER        Electrostatic Energy            =  -0.18 kcal/mol
DOCKED: USER        Moving Ligand-Fixed Receptor    =  +0.04 kcal/mol
DOCKED: USER        Moving Ligand-Moving Receptor   =  +0.00 kcal/mol
DOCKED: USER    (2) Final Total Internal Energy     =  +0.00 kcal/mol
DOCKED: USER    (3) Torsional Free Energy           =  +0.00 kcal/mol
DOCKED: USER    (4) Unbound System's Energy         =  +0.00 kcal/mol
DOCKED: USER
DOCKED: USER
DOCKED: USER                              x       y       z     vdW  Elec       q    Type
DOCKED: USER                           _______ _______ _______ _____ _____    ______ ____
DOCKED: ROOT
DOCKED: ATOM      1 V1   LIG A   1      -1.517  -8.476   8.189 +0.00 -0.00    +1.500 Zn 
DOCKED: ATOM      2 V2   LIG A   1      -0.282  -8.791   5.372 +0.02 -0.02    +1.500 Zn 
DOCKED: ATOM      3 V3   LIG A   1       1.499  -7.969   7.762 +0.00 -0.00    +1.500 Zn 
DOCKED: ATOM      4 V4   LIG A   1      -0.385  -5.617   8.553 +0.00 +0.00    +1.500 Zn 
DOCKED: ATOM      5 V5   LIG A   1      -2.265  -6.271   6.201 +0.06 -0.00    +1.500 Zn 
DOCKED: ATOM      6 O1   LIG A   1      -2.282  -9.517   9.140 +0.00 +0.00    -0.800 OA 
DOCKED: ATOM      7 O2   LIG A   1      -1.166  -9.588   6.626 +0.00 +0.00    -0.750 OA 
DOCKED: ATOM      8 O3   LIG A   1       0.435  -8.940   8.630 +0.00 +0.00    -0.750 OA 
DOCKED: ATOM      9 O4   LIG A   1      -1.209  -7.038   9.318 +0.00 -0.00    -0.750 OA 
DOCKED: ATOM     10 O5   LIG A   1      -2.829  -7.639   7.285 +0.00 +0.00    -0.750 OA 
DOCKED: ATOM     11 O6   LIG A   1      -0.209  -7.127   6.834 +0.01 +0.00    -0.750 OA 
DOCKED: ATOM     12 O7   LIG A   1       0.798  -7.309   4.441 +0.03 +0.02    -0.750 OA 
DOCKED: ATOM     13 O8   LIG A   1       1.458  -9.023   6.107 +0.00 +0.00    -0.750 OA 
DOCKED: ATOM     14 O9   LIG A   1      -1.878  -7.737   4.851 +0.02 +0.01    -0.750 OA 
DOCKED: ATOM     15 O10  LIG A   1      -1.894  -5.157   7.543 +0.01 -0.01    -0.750 OA 
DOCKED: ATOM     16 O11  LIG A   1      -0.265  -9.814   4.132 +0.00 +0.01    -0.800 OA 
DOCKED: ATOM     17 O12  LIG A   1       3.086  -8.413   8.181 +0.00 -0.00    -0.750 OA 
DOCKED: ATOM     18 O13  LIG A   1      -0.403  -4.507   9.703 +0.00 -0.00    -0.800 OA 
DOCKED: ATOM     19 O14  LIG A   1      -3.601  -5.670   5.567 +0.03 -0.00    -0.800 OA 
DOCKED: ATOM     20 V6   LIG A   1       0.656  -5.742   5.496 +0.14 -0.01    +1.500 Zn 
DOCKED: ATOM     21 O15  LIG A   1       1.719  -4.771   4.628 +0.04 -0.00    -0.750 OA 
DOCKED: ATOM     22 V7   LIG A   1       3.672  -5.235   5.069 +0.15 +0.06    +1.500 Zn 
DOCKED: ATOM     23 O16  LIG A   1       4.437  -4.195   4.117 -0.57 -0.23    -0.800 OA 
DOCKED: ATOM     24 O17  LIG A   1       3.321  -4.123   6.632 +0.03 -0.01    -0.750 OA 
DOCKED: ATOM     25 V8   LIG A   1       2.437  -4.920   7.887 +0.02 +0.01    +1.500 Zn 
DOCKED: ATOM     26 O18  LIG A   1       2.364  -6.585   6.424 +0.02 -0.00    -0.750 OA 
DOCKED: ATOM     27 O19  LIG A   1       3.363  -6.673   3.941 +0.04 -0.00    -0.750 OA 
DOCKED: ATOM     28 V9   LIG A   1       2.540  -8.094   4.706 +0.05 -0.01    +1.500 Zn 
DOCKED: ATOM     29 V10  LIG A   1       4.420  -7.440   7.057 +0.01 +0.01    +1.500 Zn 
DOCKED: ATOM     30 O20  LIG A   1       4.984  -6.072   5.973 +0.01 -0.01    -0.750 OA 
DOCKED: ATOM     31 O21  LIG A   1       4.033  -5.974   8.408 +0.00 -0.00    -0.750 OA 
DOCKED: ATOM     32 O22  LIG A   1       1.357  -6.402   8.818 +0.00 -0.00    -0.750 OA 
DOCKED: ATOM     33 O23  LIG A   1       4.048  -8.554   5.714 +0.01 +0.00    -0.750 OA 
DOCKED: ATOM     34 O24  LIG A   1       2.558  -9.204   3.556 +0.02 +0.01    -0.800 OA 
DOCKED: ATOM     35 O25  LIG A   1       5.755  -8.041   7.691 +0.00 -0.00    -0.800 OA 
DOCKED: ATOM     36 O26  LIG A   1       0.697  -4.688   7.152 +0.03 -0.00    -0.750 OA 
DOCKED: ATOM     37 O27  LIG A   1       2.420  -3.898   9.125 +0.00 -0.00    -0.800 OA 
DOCKED: ATOM     38 O28  LIG A   1      -0.930  -5.299   5.077 +0.04 +0.01    -0.750 OA 
DOCKED: ENDROOT
DOCKED: TORSDOF 0
DOCKED: TER
DOCKED: ENDMDL
________________________________________________________________________________


    FINAL DOCKED STATE:
    ________________________


Run:   7 / 20
Time taken for this run:   0.007s

DOCKED: MODEL        7
DOCKED: USER    Run = 7
DOCKED: USER
DOCKED: USER    Estimated Free Energy of Binding    =  +0.07 kcal/mol  [=(1)+(2)+(3)-(4)]
DOCKED: USER
DOCKED: USER    (1) Final Intermolecular Energy     =  +0.07 kcal/mol
DOCKED: USER        vdW + Hbond + desolv Energy     =  +0.25 kcal/mol
DOCKED: USER        Electrostatic Energy            =  -0.18 kcal/mol
DOCKED: USER        Moving Ligand-Fixed Receptor    =  +0.07 kcal/mol
DOCKED: USER        Moving Ligand-Moving Receptor   =  +0.00 kcal/mol
DOCKED: USER    (2) Final Total Internal Energy     =  +0.00 kcal/mol
DOCKED: USER    (3) Torsional Free Energy           =  +0.00 kcal/mol
DOCKED: USER    (4) Unbound System's Energy         =  +0.00 kcal/mol
DOCKED: USER
DOCKED: USER
DOCKED: USER                              x       y       z     vdW  Elec       q    Type
DOCKED: USER                           _______ _______ _______ _____ _____    ______ ____
DOCKED: ROOT
DOCKED: ATOM      1 V1   LIG A   1       3.132   8.393  -4.252 +0.02 +0.00    +1.500 Zn 
DOCKED: ATOM      2 V2   LIG A   1       3.134   5.931  -6.124 +0.04 -0.02    +1.500 Zn 
DOCKED: ATOM      3 V3   LIG A   1       0.673   7.801  -6.024 +0.00 -0.00    +1.500 Zn 
DOCKED: ATOM      4 V4   LIG A   1       0.452   7.594  -2.923 +0.03 +0.01    +1.500 Zn 
DOCKED: ATOM      5 V5   LIG A   1       2.875   5.693  -2.830 +0.16 +0.07    +1.500 Zn 
DOCKED: ATOM      6 O1   LIG A   1       4.089   9.678  -4.179 +0.00 +0.00    -0.800 OA 
DOCKED: ATOM      7 O2   LIG A   1       3.953   7.399  -5.715 +0.01 +0.00    -0.750 OA 
DOCKED: ATOM      8 O3   LIG A   1       1.833   8.982  -5.731 +0.00 +0.00    -0.750 OA 
DOCKED: ATOM      9 O4   LIG A   1       1.732   8.859  -3.130 +0.00 -0.00    -0.750 OA 
DOCKED: ATOM     10 O5   LIG A   1       3.845   7.231  -3.076 +0.02 -0.01    -0.750 OA 
DOCKED: ATOM     11 O6   LIG A   1       1.687   6.614  -4.590 +0.01 -0.00    -0.750 OA 
DOCKED: ATOM     12 O7   LIG A   1       1.668   4.489  -6.094 +0.02 +0.01    -0.750 OA 
DOCKED: ATOM     13 O8   LIG A   1       1.777   6.698  -7.215 +0.00 +0.00    -0.750 OA 
DOCKED: ATOM     14 O9   LIG A   1       3.828   5.035  -4.497 +0.00 +0.03    -0.750 OA 
DOCKED: ATOM     15 O10  LIG A   1       1.569   6.484  -1.909 +0.03 -0.03    -0.750 OA 
DOCKED: ATOM     16 O11  LIG A   1       4.067   5.199  -7.208 +0.01 +0.01    -0.800 OA 
DOCKED: ATOM     17 O12  LIG A   1      -0.357   8.362  -7.254 +0.00 +0.00    -0.750 OA 
DOCKED: ATOM     18 O13  LIG A   1      -0.510   8.210  -1.804 +0.01 -0.01    -0.800 OA 
DOCKED: ATOM     19 O14  LIG A   1       3.678   4.873  -1.722 -0.55 -0.29    -0.800 OA 
DOCKED: ATOM     20 V6   LIG A   1       0.547   4.837  -4.606 +0.12 -0.01    +1.500 Zn 
DOCKED: ATOM     21 O15  LIG A   1      -0.613   3.655  -4.900 +0.03 +0.03    -0.750 OA 
DOCKED: ATOM     22 V7   LIG A   1      -1.912   4.245  -6.379 +0.06 -0.04    +1.500 Zn 
DOCKED: ATOM     23 O16  LIG A   1      -2.868   2.959  -6.451 +0.03 +0.03    -0.800 OA 
DOCKED: ATOM     24 O17  LIG A   1      -2.733   5.239  -4.915 +0.02 +0.02    -0.750 OA 
DOCKED: ATOM     25 V8   LIG A   1      -1.914   6.707  -4.506 +0.04 -0.01    +1.500 Zn 
DOCKED: ATOM     26 O18  LIG A   1      -0.466   6.023  -6.040 +0.01 +0.01    -0.750 OA 
DOCKED: ATOM     27 O19  LIG A   1      -0.512   3.779  -7.500 +0.01 +0.01    -0.750 OA 
DOCKED: ATOM     28 V9   LIG A   1       0.769   5.044  -7.707 +0.01 -0.01    +1.500 Zn 
DOCKED: ATOM     29 V10  LIG A   1      -1.654   6.945  -7.800 +0.00 -0.01    +1.500 Zn 
DOCKED: ATOM     30 O20  LIG A   1      -2.624   5.407  -7.554 +0.01 +0.01    -0.750 OA 
DOCKED: ATOM     31 O21  LIG A   1      -2.608   7.604  -6.133 +0.00 +0.00    -0.750 OA 
DOCKED: ATOM     32 O22  LIG A   1      -0.448   8.149  -4.536 +0.00 -0.00    -0.750 OA 
DOCKED: ATOM     33 O23  LIG A   1      -0.348   6.153  -8.721 +0.00 +0.00    -0.750 OA 
DOCKED: ATOM     34 O24  LIG A   1       1.730   4.428  -8.826 +0.00 +0.01    -0.800 OA 
DOCKED: ATOM     35 O25  LIG A   1      -2.458   7.765  -8.908 +0.00 +0.00    -0.800 OA 
DOCKED: ATOM     36 O26  LIG A   1      -0.557   5.940  -3.415 +0.03 -0.00    -0.750 OA 
DOCKED: ATOM     37 O27  LIG A   1      -2.846   7.439  -3.423 +0.01 +0.00    -0.800 OA 
DOCKED: ATOM     38 O28  LIG A   1       1.578   4.277  -3.377 +0.04 -0.01    -0.750 OA 
DOCKED: ENDROOT
DOCKED: TORSDOF 0
DOCKED: TER
DOCKED: ENDMDL
________________________________________________________________________________


    FINAL DOCKED STATE:
    ________________________


Run:   8 / 20
Time taken for this run:   0.007s

DOCKED: MODEL        8
DOCKED: USER    Run = 8
DOCKED: USER
DOCKED: USER    Estimated Free Energy of Binding    =  -0.25 kcal/mol  [=(1)+(2)+(3)-(4)]
DOCKED: USER
DOCKED: USER    (1) Final Intermolecular Energy     =  -0.25 kcal/mol
DOCKED: USER        vdW + Hbond + desolv Energy     =  +0.00 kcal/mol
DOCKED: USER        Electrostatic Energy            =  -0.25 kcal/mol
DOCKED: USER        Moving Ligand-Fixed Receptor    =  -0.25 kcal/mol
DOCKED: USER        Moving Ligand-Moving Receptor   =  +0.00 kcal/mol
DOCKED: USER    (2) Final Total Internal Energy     =  +0.00 kcal/mol
DOCKED: USER    (3) Torsional Free Energy           =  +0.00 kcal/mol
DOCKED: USER    (4) Unbound System's Energy         =  +0.00 kcal/mol
DOCKED: USER
DOCKED: USER
DOCKED: USER                              x       y       z     vdW  Elec       q    Type
DOCKED: USER                           _______ _______ _______ _____ _____    ______ ____
DOCKED: ROOT
DOCKED: ATOM      1 V1   LIG A   1       4.793   8.172  -4.096 +0.04 -0.00    +1.500 Zn 
DOCKED: ATOM      2 V2   LIG A   1       4.012   5.832  -5.961 +0.06 -0.03    +1.500 Zn 
DOCKED: ATOM      3 V3   LIG A   1       2.480   8.513  -6.113 +0.00 -0.00    +1.500 Zn 
DOCKED: ATOM      4 V4   LIG A   1       1.900   8.530  -3.052 +0.02 +0.01    +1.500 Zn 
DOCKED: ATOM      5 V5   LIG A   1       3.367   5.843  -2.712 +0.17 +0.07    +1.500 Zn 
DOCKED: ATOM      6 O1   LIG A   1       6.164   8.986  -3.922 +0.01 +0.00    -0.800 OA 
DOCKED: ATOM      7 O2   LIG A   1       5.296   6.881  -5.467 +0.02 +0.01    -0.750 OA 
DOCKED: ATOM      8 O3   LIG A   1       3.976   9.161  -5.700 +0.00 +0.00    -0.750 OA 
DOCKED: ATOM      9 O4   LIG A   1       3.586   9.189  -3.123 +0.01 -0.00    -0.750 OA 
DOCKED: ATOM     10 O5   LIG A   1       4.879   6.871  -2.854 +0.02 -0.00    -0.750 OA 
DOCKED: ATOM     11 O6   LIG A   1       2.807   7.083  -4.584 +0.01 -0.00    -0.750 OA 
DOCKED: ATOM     12 O7   LIG A   1       2.104   5.075  -6.084 +0.01 +0.01    -0.750 OA 
DOCKED: ATOM     13 O8   LIG A   1       3.174   7.023  -7.185 +0.00 +0.00    -0.750 OA 
DOCKED: ATOM     14 O9   LIG A   1       4.142   4.800  -4.272 -0.00 +0.04    -0.750 OA 
DOCKED: ATOM     15 O10  LIG A   1       2.392   7.114  -1.930 +0.02 -0.02    -0.750 OA 
DOCKED: ATOM     16 O11  LIG A   1       4.684   4.753  -6.944 +0.02 +0.02    -0.800 OA 
DOCKED: ATOM     17 O12  LIG A   1       1.873   9.382  -7.442 +0.00 +0.00    -0.750 OA 
DOCKED: ATOM     18 O13  LIG A   1       1.153   9.514  -2.037 +0.00 -0.01    -0.800 OA 
DOCKED: ATOM     19 O14  LIG A   1       3.676   4.818  -1.528 -0.58 -0.36    -0.800 OA 
DOCKED: ATOM     20 V6   LIG A   1       1.071   5.890  -4.720 +0.06 -0.00    +1.500 Zn 
DOCKED: ATOM     21 O15  LIG A   1      -0.424   5.241  -5.133 +0.02 +0.01    -0.750 OA 
DOCKED: ATOM     22 V7   LIG A   1      -1.242   6.231  -6.738 +0.01 -0.01    +1.500 Zn 
DOCKED: ATOM     23 O16  LIG A   1      -2.612   5.416  -6.911 +0.01 +0.01    -0.800 OA 
DOCKED: ATOM     24 O17  LIG A   1      -1.746   7.522  -5.366 +0.00 +0.00    -0.750 OA 
DOCKED: ATOM     25 V8   LIG A   1      -0.461   8.571  -4.872 +0.00 +0.00    +1.500 Zn 
DOCKED: ATOM     26 O18  LIG A   1       0.744   7.319  -6.249 +0.00 +0.00    -0.750 OA 
DOCKED: ATOM     27 O19  LIG A   1      -0.035   5.214  -7.710 +0.00 +0.01    -0.750 OA 
DOCKED: ATOM     28 V9   LIG A   1       1.651   5.873  -7.781 +0.00 -0.01    +1.500 Zn 
DOCKED: ATOM     29 V10  LIG A   1       0.184   8.561  -8.121 +0.00 -0.00    +1.500 Zn 
DOCKED: ATOM     30 O20  LIG A   1      -1.328   7.531  -7.979 +0.00 +0.00    -0.750 OA 
DOCKED: ATOM     31 O21  LIG A   1      -0.591   9.603  -6.561 +0.00 +0.00    -0.750 OA 
DOCKED: ATOM     32 O22  LIG A   1       1.447   9.328  -4.749 +0.00 -0.00    -0.750 OA 
DOCKED: ATOM     33 O23  LIG A   1       1.159   7.288  -8.904 +0.00 +0.00    -0.750 OA 
DOCKED: ATOM     34 O24  LIG A   1       2.398   4.889  -8.796 +0.00 +0.01    -0.800 OA 
DOCKED: ATOM     35 O25  LIG A   1      -0.125   9.585  -9.305 +0.00 +0.00    -0.800 OA 
DOCKED: ATOM     36 O26  LIG A   1       0.377   7.380  -3.648 +0.01 -0.00    -0.750 OA 
DOCKED: ATOM     37 O27  LIG A   1      -1.133   9.649  -3.890 +0.00 -0.00    -0.800 OA 
DOCKED: ATOM     38 O28  LIG A   1       1.678   5.021  -3.392 +0.04 -0.02    -0.750 OA 
DOCKED: ENDROOT
DOCKED: TORSDOF 0
DOCKED: TER
DOCKED: ENDMDL
________________________________________________________________________________


    FINAL DOCKED STATE:
    ________________________


Run:   9 / 20
Time taken for this run:   0.007s

DOCKED: MODEL        9
DOCKED: USER    Run = 9
DOCKED: USER
DOCKED: USER    Estimated Free Energy of Binding    =  -0.18 kcal/mol  [=(1)+(2)+(3)-(4)]
DOCKED: USER
DOCKED: USER    (1) Final Intermolecular Energy     =  -0.18 kcal/mol
DOCKED: USER        vdW + Hbond + desolv Energy     =  +0.06 kcal/mol
DOCKED: USER        Electrostatic Energy            =  -0.24 kcal/mol
DOCKED: USER        Moving Ligand-Fixed Receptor    =  -0.18 kcal/mol
DOCKED: USER        Moving Ligand-Moving Receptor   =  +0.00 kcal/mol
DOCKED: USER    (2) Final Total Internal Energy     =  +0.00 kcal/mol
DOCKED: USER    (3) Torsional Free Energy           =  +0.00 kcal/mol
DOCKED: USER    (4) Unbound System's Energy         =  +0.00 kcal/mol
DOCKED: USER
DOCKED: USER
DOCKED: USER                              x       y       z     vdW  Elec       q    Type
DOCKED: USER                           _______ _______ _______ _____ _____    ______ ____
DOCKED: ROOT
DOCKED: ATOM      1 V1   LIG A   1       0.829   5.456  -8.221 +0.00 -0.01    +1.500 Zn 
DOCKED: ATOM      2 V2   LIG A   1       2.525   7.854  -7.253 +0.00 -0.00    +1.500 Zn 
DOCKED: ATOM      3 V3   LIG A   1       1.811   5.569  -5.296 +0.05 -0.01    +1.500 Zn 
DOCKED: ATOM      4 V4   LIG A   1      -1.233   5.770  -5.933 +0.03 -0.02    +1.500 Zn 
DOCKED: ATOM      5 V5   LIG A   1      -0.715   8.081  -7.903 +0.00 -0.00    +1.500 Zn 
DOCKED: ATOM      6 O1   LIG A   1       1.081   4.368  -9.372 +0.00 +0.01    -0.800 OA 
DOCKED: ATOM      7 O2   LIG A   1       2.423   6.565  -8.402 +0.00 +0.00    -0.750 OA 
DOCKED: ATOM      8 O3   LIG A   1       1.904   4.622  -6.682 +0.01 +0.01    -0.750 OA 
DOCKED: ATOM      9 O4   LIG A   1      -0.623   4.757  -7.305 +0.00 +0.01    -0.750 OA 
DOCKED: ATOM     10 O5   LIG A   1      -0.143   6.743  -9.021 +0.00 +0.00    -0.750 OA 
DOCKED: ATOM     11 O6   LIG A   1       0.674   6.938  -6.447 +0.00 +0.00    -0.750 OA 
DOCKED: ATOM     12 O7   LIG A   1       2.025   9.006  -5.624 +0.00 -0.00    -0.750 OA 
DOCKED: ATOM     13 O8   LIG A   1       3.219   6.840  -5.801 +0.01 +0.00    -0.750 OA 
DOCKED: ATOM     14 O9   LIG A   1       1.125   8.882  -8.210 +0.00 +0.00    -0.750 OA 
DOCKED: ATOM     15 O10  LIG A   1      -1.934   7.077  -7.076 +0.00 +0.00    -0.750 OA 
DOCKED: ATOM     16 O11  LIG A   1       3.798   8.731  -7.692 +0.00 +0.00    -0.800 OA 
DOCKED: ATOM     17 O12  LIG A   1       2.722   4.815  -4.075 +0.02 +0.00    -0.750 OA 
DOCKED: ATOM     18 O13  LIG A   1      -2.551   5.004  -5.455 +0.02 +0.02    -0.800 OA 
DOCKED: ATOM     19 O14  LIG A   1      -1.584   9.048  -8.830 +0.00 +0.00    -0.800 OA 
DOCKED: ATOM     20 V6   LIG A   1       0.297   8.477  -5.052 +0.00 +0.00    +1.500 Zn 
DOCKED: ATOM     21 O15  LIG A   1       0.204   9.425  -3.667 +0.00 -0.00    -0.750 OA 
DOCKED: ATOM     22 V7   LIG A   1       1.279   8.590  -2.127 +0.02 +0.01    +1.500 Zn 
DOCKED: ATOM     23 O16  LIG A   1       1.027   9.680  -0.977 +0.00 -0.01    -0.800 OA 
DOCKED: ATOM     24 O17  LIG A   1      -0.316   7.481  -1.946 +0.01 -0.01    -0.750 OA 
DOCKED: ATOM     25 V8   LIG A   1      -0.418   6.192  -3.096 +0.09 +0.01    +1.500 Zn 
DOCKED: ATOM     26 O18  LIG A   1       1.433   7.109  -3.902 +0.01 -0.01    -0.750 OA 
DOCKED: ATOM     27 O19  LIG A   1       2.730   9.289  -3.043 +0.01 -0.00    -0.750 OA 
DOCKED: ATOM     28 V9   LIG A   1       3.340   8.276  -4.416 +0.02 +0.00    +1.500 Zn 
DOCKED: ATOM     29 V10  LIG A   1       2.823   5.965  -2.445 +0.15 +0.08    +1.500 Zn 
DOCKED: ATOM     30 O20  LIG A   1       2.251   7.304  -1.328 +0.02 -0.02    -0.750 OA 
DOCKED: ATOM     31 O21  LIG A   1       0.982   5.164  -2.138 +0.05 -0.03    -0.750 OA 
DOCKED: ATOM     32 O22  LIG A   1       0.082   5.041  -4.724 +0.03 +0.01    -0.750 OA 
DOCKED: ATOM     33 O23  LIG A   1       4.042   6.970  -3.273 +0.02 -0.01    -0.750 OA 
DOCKED: ATOM     34 O24  LIG A   1       4.659   9.043  -4.893 +0.01 +0.00    -0.800 OA 
DOCKED: ATOM     35 O25  LIG A   1       3.691   4.999  -1.519 -0.59 -0.29    -0.800 OA 
DOCKED: ATOM     36 O26  LIG A   1      -1.112   7.207  -4.548 +0.01 +0.00    -0.750 OA 
DOCKED: ATOM     37 O27  LIG A   1      -1.690   5.317  -2.656 +0.04 -0.00    -0.800 OA 
DOCKED: ATOM     38 O28  LIG A   1      -0.613   9.232  -6.273 +0.00 +0.00    -0.750 OA 
DOCKED: ENDROOT
DOCKED: TORSDOF 0
DOCKED: TER
DOCKED: ENDMDL
________________________________________________________________________________


    FINAL DOCKED STATE:
    ________________________


Run:   10 / 20
Time taken for this run:   0.007s

DOCKED: MODEL        10
DOCKED: USER    Run = 10
DOCKED: USER
DOCKED: USER    Estimated Free Energy of Binding    =  +0.20 kcal/mol  [=(1)+(2)+(3)-(4)]
DOCKED: USER
DOCKED: USER    (1) Final Intermolecular Energy     =  +0.20 kcal/mol
DOCKED: USER        vdW + Hbond + desolv Energy     =  +0.45 kcal/mol
DOCKED: USER        Electrostatic Energy            =  -0.25 kcal/mol
DOCKED: USER        Moving Ligand-Fixed Receptor    =  +0.20 kcal/mol
DOCKED: USER        Moving Ligand-Moving Receptor   =  +0.00 kcal/mol
DOCKED: USER    (2) Final Total Internal Energy     =  +0.00 kcal/mol
DOCKED: USER    (3) Torsional Free Energy           =  +0.00 kcal/mol
DOCKED: USER    (4) Unbound System's Energy         =  +0.00 kcal/mol
DOCKED: USER
DOCKED: USER
DOCKED: USER                              x       y       z     vdW  Elec       q    Type
DOCKED: USER                           _______ _______ _______ _____ _____    ______ ____
DOCKED: ROOT
DOCKED: ATOM      1 V1   LIG A   1      -2.348   6.142  -1.228 +0.16 +0.04    +1.500 Zn 
DOCKED: ATOM      2 V2   LIG A   1      -1.939   8.460  -3.234 +0.01 +0.01    +1.500 Zn 
DOCKED: ATOM      3 V3   LIG A   1      -0.203   5.909  -3.436 +0.10 +0.01    +1.500 Zn 
DOCKED: ATOM      4 V4   LIG A   1       0.646   6.066  -0.442 +0.15 +0.06    +1.500 Zn 
DOCKED: ATOM      5 V5   LIG A   1      -1.010   8.636  -0.059 +0.01 +0.02    +1.500 Zn 
DOCKED: ATOM      6 O1   LIG A   1      -3.624   5.226  -0.902 +0.03 -0.03    -0.800 OA 
DOCKED: ATOM      7 O2   LIG A   1      -3.080   7.330  -2.590 +0.02 -0.00    -0.750 OA 
DOCKED: ATOM      8 O3   LIG A   1      -1.595   5.158  -2.866 +0.03 +0.00    -0.750 OA 
DOCKED: ATOM      9 O4   LIG A   1      -0.978   5.268  -0.337 +0.04 -0.04    -0.750 OA 
DOCKED: ATOM     10 O5   LIG A   1      -2.435   7.481  -0.028 +0.02 -0.01    -0.750 OA 
DOCKED: ATOM     11 O6   LIG A   1      -0.514   7.369  -1.932 +0.01 -0.01    -0.750 OA 
DOCKED: ATOM     12 O7   LIG A   1      -0.121   9.365  -3.557 +0.00 -0.00    -0.750 OA 
DOCKED: ATOM     13 O8   LIG A   1      -1.114   7.292  -4.489 +0.01 +0.00    -0.750 OA 
DOCKED: ATOM     14 O9   LIG A   1      -2.006   9.546  -1.576 +0.00 -0.00    -0.750 OA 
DOCKED: ATOM     15 O10  LIG A   1       0.136   7.481   0.672 +0.01 -0.02    -0.750 OA 
DOCKED: ATOM     16 O11  LIG A   1      -2.786   9.439  -4.187 +0.00 -0.00    -0.800 OA 
DOCKED: ATOM     17 O12  LIG A   1       0.356   5.039  -4.786 +0.03 +0.01    -0.750 OA 
DOCKED: ATOM     18 O13  LIG A   1       1.561   5.189   0.531 +0.07 -0.05    -0.800 OA 
DOCKED: ATOM     19 O14  LIG A   1      -1.299   9.679   1.113 +0.00 -0.01    -0.800 OA 
DOCKED: ATOM     20 V6   LIG A   1       1.095   8.695  -2.267 +0.01 +0.01    +1.500 Zn 
DOCKED: ATOM     21 O15  LIG A   1       2.486   9.447  -2.837 +0.00 -0.00    -0.750 OA 
DOCKED: ATOM     22 V7   LIG A   1       3.240   8.462  -4.476 +0.02 +0.00    +1.500 Zn 
DOCKED: ATOM     23 O16  LIG A   1       4.515   9.379  -4.801 +0.00 +0.00    -0.800 OA 
DOCKED: ATOM     24 O17  LIG A   1       3.972   7.273  -3.114 +0.02 -0.01    -0.750 OA 
DOCKED: ATOM     25 V8   LIG A   1       2.831   6.144  -2.470 +0.14 +0.07    +1.500 Zn 
DOCKED: ATOM     26 O18  LIG A   1       1.405   7.235  -3.771 +0.01 -0.01    -0.750 OA 
DOCKED: ATOM     27 O19  LIG A   1       1.869   9.335  -5.367 +0.00 -0.00    -0.750 OA 
DOCKED: ATOM     28 V9   LIG A   1       0.246   8.538  -5.261 +0.00 +0.00    +1.500 Zn 
DOCKED: ATOM     29 V10  LIG A   1       1.901   5.968  -5.644 +0.03 -0.01    +1.500 Zn 
DOCKED: ATOM     30 O20  LIG A   1       3.326   7.123  -5.676 +0.01 +0.00    -0.750 OA 
DOCKED: ATOM     31 O21  LIG A   1       2.898   5.058  -4.127 +0.02 +0.00    -0.750 OA 
DOCKED: ATOM     32 O22  LIG A   1       1.013   5.239  -2.146 +0.05 -0.03    -0.750 OA 
DOCKED: ATOM     33 O23  LIG A   1       0.756   7.123  -6.376 +0.00 +0.00    -0.750 OA 
DOCKED: ATOM     34 O24  LIG A   1      -0.669   9.415  -6.235 +0.00 +0.00    -0.800 OA 
DOCKED: ATOM     35 O25  LIG A   1       2.190   4.925  -6.817 +0.01 +0.01    -0.800 OA 
DOCKED: ATOM     36 O26  LIG A   1       2.006   7.311  -1.214 +0.02 -0.02    -0.750 OA 
DOCKED: ATOM     37 O27  LIG A   1       3.676   5.166  -1.517 -0.60 -0.23    -0.800 OA 
DOCKED: ATOM     38 O28  LIG A   1       0.536   9.564  -0.919 +0.00 -0.01    -0.750 OA 
DOCKED: ENDROOT
DOCKED: TORSDOF 0
DOCKED: TER
DOCKED: ENDMDL
________________________________________________________________________________


    FINAL DOCKED STATE:
    ________________________


Run:   11 / 20
Time taken for this run:   0.007s

DOCKED: MODEL        11
DOCKED: USER    Run = 11
DOCKED: USER
DOCKED: USER    Estimated Free Energy of Binding    =  +0.04 kcal/mol  [=(1)+(2)+(3)-(4)]
DOCKED: USER
DOCKED: USER    (1) Final Intermolecular Energy     =  +0.04 kcal/mol
DOCKED: USER        vdW + Hbond + desolv Energy     =  +0.17 kcal/mol
DOCKED: USER        Electrostatic Energy            =  -0.14 kcal/mol
DOCKED: USER        Moving Ligand-Fixed Receptor    =  +0.04 kcal/mol
DOCKED: USER        Moving Ligand-Moving Receptor   =  +0.00 kcal/mol
DOCKED: USER    (2) Final Total Internal Energy     =  +0.00 kcal/mol
DOCKED: USER    (3) Torsional Free Energy           =  +0.00 kcal/mol
DOCKED: USER    (4) Unbound System's Energy         =  +0.00 kcal/mol
DOCKED: USER
DOCKED: USER
DOCKED: USER                              x       y       z     vdW  Elec       q    Type
DOCKED: USER                           _______ _______ _______ _____ _____    ______ ____
DOCKED: ROOT
DOCKED: ATOM      1 V1   LIG A   1       3.197  -3.957   5.370 +0.20 +0.05    +1.500 Zn 
DOCKED: ATOM      2 V2   LIG A   1       5.595  -3.662   7.301 +0.04 +0.02    +1.500 Zn 
DOCKED: ATOM      3 V3   LIG A   1       5.888  -5.317   4.706 +0.10 +0.08    +1.500 Zn 
DOCKED: ATOM      4 V4   LIG A   1       3.378  -7.048   5.346 +0.06 +0.01    +1.500 Zn 
DOCKED: ATOM      5 V5   LIG A   1       2.944  -5.525   7.989 +0.02 +0.01    +1.500 Zn 
DOCKED: ATOM      6 O1   LIG A   1       2.341  -2.870   4.559 -0.00 +0.02    -0.800 OA 
DOCKED: ATOM      7 O2   LIG A   1       4.446  -2.807   6.330 +0.01 -0.01    -0.750 OA 
DOCKED: ATOM      8 O3   LIG A   1       4.795  -4.191   4.102 -0.56 -0.23    -0.750 OA 
DOCKED: ATOM      9 O4   LIG A   1       2.640  -5.560   4.624 +0.04 -0.01    -0.750 OA 
DOCKED: ATOM     10 O5   LIG A   1       2.276  -4.211   6.897 +0.03 -0.00    -0.750 OA 
DOCKED: ATOM     11 O6   LIG A   1       4.634  -5.449   6.409 +0.01 -0.01    -0.750 OA 
DOCKED: ATOM     12 O7   LIG A   1       6.615  -5.265   8.087 +0.01 -0.00    -0.750 OA 
DOCKED: ATOM     13 O8   LIG A   1       6.826  -4.088   5.914 +0.02 -0.02    -0.750 OA 
DOCKED: ATOM     14 O9   LIG A   1       4.209  -4.083   8.655 +0.01 -0.00    -0.750 OA 
DOCKED: ATOM     15 O10  LIG A   1       2.418  -6.871   6.944 +0.01 -0.00    -0.750 OA 
DOCKED: ATOM     16 O11  LIG A   1       6.391  -2.536   8.126 +0.01 -0.00    -0.800 OA 
DOCKED: ATOM     17 O12  LIG A   1       7.175  -5.453   3.604 +0.02 -0.02    -0.750 OA 
DOCKED: ATOM     18 O13  LIG A   1       2.602  -8.243   4.622 +0.02 +0.01    -0.800 OA 
DOCKED: ATOM     19 O14  LIG A   1       1.935  -5.586   9.224 +0.00 -0.00    -0.800 OA 
DOCKED: ATOM     20 V6   LIG A   1       5.672  -6.838   7.612 +0.01 +0.01    +1.500 Zn 
DOCKED: ATOM     21 O15  LIG A   1       6.765  -7.964   8.217 +0.00 -0.00    -0.750 OA 
DOCKED: ATOM     22 V7   LIG A   1       8.364  -8.198   6.947 +0.00 +0.00    +1.500 Zn 
DOCKED: ATOM     23 O16  LIG A   1       9.219  -9.284   7.760 +0.00 -0.00    -0.800 OA 
DOCKED: ATOM     24 O17  LIG A   1       7.114  -9.348   5.988 +0.00 -0.00    -0.750 OA 
DOCKED: ATOM     25 V8   LIG A   1       5.965  -8.494   5.017 +0.01 +0.00    +1.500 Zn 
DOCKED: ATOM     26 O18  LIG A   1       6.926  -6.706   5.910 +0.01 -0.01    -0.750 OA 
DOCKED: ATOM     27 O19  LIG A   1       8.920  -6.596   7.695 +0.00 -0.00    -0.750 OA 
DOCKED: ATOM     28 V9   LIG A   1       8.182  -5.107   6.972 +0.02 +0.01    +1.500 Zn 
DOCKED: ATOM     29 V10  LIG A   1       8.616  -6.630   4.330 +0.02 +0.01    +1.500 Zn 
DOCKED: ATOM     30 O20  LIG A   1       9.284  -7.944   5.422 +0.00 -0.00    -0.750 OA 
DOCKED: ATOM     31 O21  LIG A   1       7.351  -8.072   3.663 +0.01 +0.00    -0.750 OA 
DOCKED: ATOM     32 O22  LIG A   1       4.944  -6.891   4.231 +0.02 -0.01    -0.750 OA 
DOCKED: ATOM     33 O23  LIG A   1       9.142  -5.283   5.375 +0.01 -0.01    -0.750 OA 
DOCKED: ATOM     34 O24  LIG A   1       8.958  -3.912   7.696 +0.00 -0.01    -0.800 OA 
DOCKED: ATOM     35 O25  LIG A   1       9.625  -6.569   3.095 +0.01 -0.00    -0.800 OA 
DOCKED: ATOM     36 O26  LIG A   1       4.734  -8.068   6.404 +0.01 -0.00    -0.750 OA 
DOCKED: ATOM     37 O27  LIG A   1       5.170  -9.619   4.192 +0.00 +0.00    -0.800 OA 
DOCKED: ATOM     38 O28  LIG A   1       4.385  -6.702   8.714 +0.00 -0.00    -0.750 OA 
DOCKED: ENDROOT
DOCKED: TORSDOF 0
DOCKED: TER
DOCKED: ENDMDL
________________________________________________________________________________


    FINAL DOCKED STATE:
    ________________________


Run:   12 / 20
Time taken for this run:   0.007s

DOCKED: MODEL        12
DOCKED: USER    Run = 12
DOCKED: USER
DOCKED: USER    Estimated Free Energy of Binding    =  -0.26 kcal/mol  [=(1)+(2)+(3)-(4)]
DOCKED: USER
DOCKED: USER    (1) Final Intermolecular Energy     =  -0.26 kcal/mol
DOCKED: USER        vdW + Hbond + desolv Energy     =  +0.01 kcal/mol
DOCKED: USER        Electrostatic Energy            =  -0.27 kcal/mol
DOCKED: USER        Moving Ligand-Fixed Receptor    =  -0.26 kcal/mol
DOCKED: USER        Moving Ligand-Moving Receptor   =  +0.00 kcal/mol
DOCKED: USER    (2) Final Total Internal Energy     =  +0.00 kcal/mol
DOCKED: USER    (3) Torsional Free Energy           =  +0.00 kcal/mol
DOCKED: USER    (4) Unbound System's Energy         =  +0.00 kcal/mol
DOCKED: USER
DOCKED: USER
DOCKED: USER                              x       y       z     vdW  Elec       q    Type
DOCKED: USER                           _______ _______ _______ _____ _____    ______ ____
DOCKED: ROOT
DOCKED: ATOM      1 V1   LIG A   1       5.860  -8.644   7.880 +0.00 +0.00    +1.500 Zn 
DOCKED: ATOM      2 V2   LIG A   1       8.399  -7.040   8.618 +0.00 +0.00    +1.500 Zn 
DOCKED: ATOM      3 V3   LIG A   1       5.781  -5.558   7.903 +0.02 +0.01    +1.500 Zn 
DOCKED: ATOM      4 V4   LIG A   1       5.456  -7.110   5.221 +0.03 +0.01    +1.500 Zn 
DOCKED: ATOM      5 V5   LIG A   1       8.061  -8.666   5.752 +0.00 +0.00    +1.500 Zn 
DOCKED: ATOM      6 O1   LIG A   1       5.003  -9.723   8.702 +0.00 -0.00    -0.800 OA 
DOCKED: ATOM      7 O2   LIG A   1       7.277  -8.241   9.157 +0.00 -0.00    -0.750 OA 
DOCKED: ATOM      8 O3   LIG A   1       5.062  -6.900   8.615 +0.00 -0.00    -0.750 OA 
DOCKED: ATOM      9 O4   LIG A   1       4.773  -8.280   6.423 +0.00 -0.00    -0.750 OA 
DOCKED: ATOM     10 O5   LIG A   1       7.022  -9.627   6.918 +0.00 -0.00    -0.750 OA 
DOCKED: ATOM     11 O6   LIG A   1       7.036  -6.920   6.874 +0.01 -0.00    -0.750 OA 
DOCKED: ATOM     12 O7   LIG A   1       9.205  -5.584   7.410 +0.00 -0.00    -0.750 OA 
DOCKED: ATOM     13 O8   LIG A   1       7.361  -5.510   9.066 +0.00 -0.00    -0.750 OA 
DOCKED: ATOM     14 O9   LIG A   1       9.245  -8.324   7.366 +0.00 -0.00    -0.750 OA 
DOCKED: ATOM     15 O10  LIG A   1       6.736  -8.332   4.607 +0.01 -0.00    -0.750 OA 
DOCKED: ATOM     16 O11  LIG A   1       9.560  -6.998   9.728 +0.00 -0.00    -0.800 OA 
DOCKED: ATOM     17 O12  LIG A   1       5.069  -4.161   8.561 +0.01 -0.00    -0.750 OA 
DOCKED: ATOM     18 O13  LIG A   1       4.387  -7.123   4.033 +0.03 -0.01    -0.800 OA 
DOCKED: ATOM     19 O14  LIG A   1       8.950  -9.757   4.997 +0.00 -0.00    -0.800 OA 
DOCKED: ATOM     20 V6   LIG A   1       8.274  -5.623   5.760 +0.02 +0.01    +1.500 Zn 
DOCKED: ATOM     21 O15  LIG A   1       8.994  -4.281   5.047 +0.02 -0.01    -0.750 OA 
DOCKED: ATOM     22 V7   LIG A   1       8.195  -2.536   5.783 +0.10 +0.02    +1.500 Zn 
DOCKED: ATOM     23 O16  LIG A   1       9.052  -1.458   4.960 +0.04 -0.02    -0.800 OA 
DOCKED: ATOM     24 O17  LIG A   1       6.778  -2.939   4.505 -0.01 -0.04    -0.750 OA 
DOCKED: ATOM     25 V8   LIG A   1       5.656  -4.140   5.044 +0.14 +0.13    +1.500 Zn 
DOCKED: ATOM     26 O18  LIG A   1       7.020  -4.260   6.789 +0.01 -0.01    -0.750 OA 
DOCKED: ATOM     27 O19  LIG A   1       9.282  -2.900   7.239 +0.01 -0.01    -0.750 OA 
DOCKED: ATOM     28 V9   LIG A   1       8.599  -4.070   8.442 +0.00 +0.01    +1.500 Zn 
DOCKED: ATOM     29 V10  LIG A   1       5.993  -2.514   7.911 +0.03 +0.01    +1.500 Zn 
DOCKED: ATOM     30 O20  LIG A   1       7.034  -1.553   6.744 +0.02 -0.01    -0.750 OA 
DOCKED: ATOM     31 O21  LIG A   1       4.810  -2.856   6.296 +0.01 -0.01    -0.750 OA 
DOCKED: ATOM     32 O22  LIG A   1       4.850  -5.597   6.252 +0.01 -0.01    -0.750 OA 
DOCKED: ATOM     33 O23  LIG A   1       7.320  -2.849   9.055 +0.00 -0.00    -0.750 OA 
DOCKED: ATOM     34 O24  LIG A   1       9.668  -4.057   9.630 +0.00 -0.00    -0.800 OA 
DOCKED: ATOM     35 O25  LIG A   1       5.106  -1.424   8.665 +0.01 -0.00    -0.800 OA 
DOCKED: ATOM     36 O26  LIG A   1       6.694  -5.670   4.596 +0.01 -0.02    -0.750 OA 
DOCKED: ATOM     37 O27  LIG A   1       4.495  -4.182   3.936 -0.54 -0.31    -0.800 OA 
DOCKED: ATOM     38 O28  LIG A   1       8.985  -7.019   5.102 +0.01 -0.00    -0.750 OA 
DOCKED: ENDROOT
DOCKED: TORSDOF 0
DOCKED: TER
DOCKED: ENDMDL
________________________________________________________________________________


    FINAL DOCKED STATE:
    ________________________


Run:   13 / 20
Time taken for this run:   0.007s

DOCKED: MODEL        13
DOCKED: USER    Run = 13
DOCKED: USER
DOCKED: USER    Estimated Free Energy of Binding    =  -0.15 kcal/mol  [=(1)+(2)+(3)-(4)]
DOCKED: USER
DOCKED: USER    (1) Final Intermolecular Energy     =  -0.15 kcal/mol
DOCKED: USER        vdW + Hbond + desolv Energy     =  +0.13 kcal/mol
DOCKED: USER        Electrostatic Energy            =  -0.29 kcal/mol
DOCKED: USER        Moving Ligand-Fixed Receptor    =  -0.15 kcal/mol
DOCKED: USER        Moving Ligand-Moving Receptor   =  +0.00 kcal/mol
DOCKED: USER    (2) Final Total Internal Energy     =  +0.00 kcal/mol
DOCKED: USER    (3) Torsional Free Energy           =  +0.00 kcal/mol
DOCKED: USER    (4) Unbound System's Energy         =  +0.00 kcal/mol
DOCKED: USER
DOCKED: USER
DOCKED: USER                              x       y       z     vdW  Elec       q    Type
DOCKED: USER                           _______ _______ _______ _____ _____    ______ ____
DOCKED: ROOT
DOCKED: ATOM      1 V1   LIG A   1      -1.137   8.468  -7.394 +0.00 -0.00    +1.500 Zn 
DOCKED: ATOM      2 V2   LIG A   1      -1.724   6.306  -5.262 +0.04 -0.01    +1.500 Zn 
DOCKED: ATOM      3 V3   LIG A   1       0.167   8.662  -4.602 +0.00 +0.00    +1.500 Zn 
DOCKED: ATOM      4 V4   LIG A   1       1.931   8.150  -7.119 +0.00 -0.00    +1.500 Zn 
DOCKED: ATOM      5 V5   LIG A   1       0.173   5.751  -7.921 +0.00 -0.01    +1.500 Zn 
DOCKED: ATOM      6 O1   LIG A   1      -2.100   9.484  -8.177 +0.00 +0.00    -0.800 OA 
DOCKED: ATOM      7 O2   LIG A   1      -2.428   7.491  -6.308 +0.00 +0.00    -0.750 OA 
DOCKED: ATOM      8 O3   LIG A   1      -0.846   9.506  -5.646 +0.00 +0.00    -0.750 OA 
DOCKED: ATOM      9 O4   LIG A   1       0.554   9.106  -7.807 +0.00 +0.00    -0.750 OA 
DOCKED: ATOM     10 O5   LIG A   1      -0.997   7.045  -8.488 +0.00 +0.00    -0.750 OA 
DOCKED: ATOM     11 O6   LIG A   1       0.182   7.117  -6.052 +0.00 +0.00    -0.750 OA 
DOCKED: ATOM     12 O7   LIG A   1      -0.251   5.243  -4.298 +0.03 +0.01    -0.750 OA 
DOCKED: ATOM     13 O8   LIG A   1      -1.215   7.484  -3.858 +0.01 -0.00    -0.750 OA 
DOCKED: ATOM     14 O9   LIG A   1      -1.380   5.091  -6.791 +0.01 +0.01    -0.750 OA 
DOCKED: ATOM     15 O10  LIG A   1       1.637   6.705  -8.273 +0.00 +0.00    -0.750 OA 
DOCKED: ATOM     16 O11  LIG A   1      -2.959   5.513  -4.608 +0.03 +0.02    -0.800 OA 
DOCKED: ATOM     17 O12  LIG A   1       0.357   9.583  -3.186 +0.00 -0.00    -0.750 OA 
DOCKED: ATOM     18 O13  LIG A   1       3.224   8.834  -7.764 +0.00 +0.00    -0.800 OA 
DOCKED: ATOM     19 O14  LIG A   1       0.154   4.645  -9.071 +0.00 +0.01    -0.800 OA 
DOCKED: ATOM     20 V6   LIG A   1       1.400   5.661  -5.129 +0.06 -0.01    +1.500 Zn 
DOCKED: ATOM     21 O15  LIG A   1       2.413   4.816  -4.085 +0.02 +0.00    -0.750 OA 
DOCKED: ATOM     22 V7   LIG A   1       2.703   5.855  -2.336 +0.16 +0.09    +1.500 Zn 
DOCKED: ATOM     23 O16  LIG A   1       3.667   4.838  -1.555 -0.57 -0.34    -0.800 OA 
DOCKED: ATOM     24 O17  LIG A   1       3.995   6.832  -3.423 +0.02 -0.00    -0.750 OA 
DOCKED: ATOM     25 V8   LIG A   1       3.291   8.017  -4.469 +0.02 +0.00    +1.500 Zn 
DOCKED: ATOM     26 O18  LIG A   1       1.384   7.205  -3.679 +0.01 -0.01    -0.750 OA 
DOCKED: ATOM     27 O19  LIG A   1       1.013   5.217  -1.924 +0.05 -0.04    -0.750 OA 
DOCKED: ATOM     28 V9   LIG A   1      -0.364   6.172  -2.612 +0.10 +0.02    +1.500 Zn 
DOCKED: ATOM     29 V10  LIG A   1       1.394   8.572  -1.811 +0.02 +0.02    +1.500 Zn 
DOCKED: ATOM     30 O20  LIG A   1       2.563   7.277  -1.243 +0.02 -0.02    -0.750 OA 
DOCKED: ATOM     31 O21  LIG A   1       2.948   9.231  -2.940 +0.01 -0.00    -0.750 OA 
DOCKED: ATOM     32 O22  LIG A   1       1.819   9.080  -5.433 +0.00 -0.00    -0.750 OA 
DOCKED: ATOM     33 O23  LIG A   1      -0.071   7.617  -1.458 +0.01 -0.01    -0.750 OA 
DOCKED: ATOM     34 O24  LIG A   1      -1.657   5.489  -1.967 +0.04 -0.01    -0.800 OA 
DOCKED: ATOM     35 O25  LIG A   1       1.413   9.677  -0.660 +0.00 -0.01    -0.800 OA 
DOCKED: ATOM     36 O26  LIG A   1       2.782   6.838  -5.873 +0.01 +0.00    -0.750 OA 
DOCKED: ATOM     37 O27  LIG A   1       4.525   8.809  -5.122 +0.01 +0.00    -0.800 OA 
DOCKED: ATOM     38 O28  LIG A   1       1.210   4.740  -6.545 +0.01 +0.01    -0.750 OA 
DOCKED: ENDROOT
DOCKED: TORSDOF 0
DOCKED: TER
DOCKED: ENDMDL
________________________________________________________________________________


    FINAL DOCKED STATE:
    ________________________


Run:   14 / 20
Time taken for this run:   0.007s

DOCKED: MODEL        14
DOCKED: USER    Run = 14
DOCKED: USER
DOCKED: USER    Estimated Free Energy of Binding    =  -0.22 kcal/mol  [=(1)+(2)+(3)-(4)]
DOCKED: USER
DOCKED: USER    (1) Final Intermolecular Energy     =  -0.22 kcal/mol
DOCKED: USER        vdW + Hbond + desolv Energy     =  +0.04 kcal/mol
DOCKED: USER        Electrostatic Energy            =  -0.26 kcal/mol
DOCKED: USER        Moving Ligand-Fixed Receptor    =  -0.22 kcal/mol
DOCKED: USER        Moving Ligand-Moving Receptor   =  +0.00 kcal/mol
DOCKED: USER    (2) Final Total Internal Energy     =  +0.00 kcal/mol
DOCKED: USER    (3) Torsional Free Energy           =  +0.00 kcal/mol
DOCKED: USER    (4) Unbound System's Energy         =  +0.00 kcal/mol
DOCKED: USER
DOCKED: USER
DOCKED: USER                              x       y       z     vdW  Elec       q    Type
DOCKED: USER                           _______ _______ _______ _____ _____    ______ ____
DOCKED: ROOT
DOCKED: ATOM      1 V1   LIG A   1       1.478   8.559  -2.365 +0.02 +0.01    +1.500 Zn 
DOCKED: ATOM      2 V2   LIG A   1       3.690   8.315  -4.513 +0.02 -0.00    +1.500 Zn 
DOCKED: ATOM      3 V3   LIG A   1       0.717   8.438  -5.355 +0.00 -0.00    +1.500 Zn 
DOCKED: ATOM      4 V4   LIG A   1      -0.079   6.109  -3.443 +0.08 +0.01    +1.500 Zn 
DOCKED: ATOM      5 V5   LIG A   1       2.841   5.821  -2.504 +0.16 +0.09    +1.500 Zn 
DOCKED: ATOM      6 O1   LIG A   1       1.191   9.679  -1.253 +0.00 -0.01    -0.800 OA 
DOCKED: ATOM      7 O2   LIG A   1       3.096   9.264  -3.194 +0.01 -0.00    -0.750 OA 
DOCKED: ATOM      8 O3   LIG A   1       0.581   9.423  -3.999 +0.00 -0.00    -0.750 OA 
DOCKED: ATOM      9 O4   LIG A   1      -0.066   7.534  -2.324 +0.01 -0.01    -0.750 OA 
DOCKED: ATOM     10 O5   LIG A   1       2.467   7.319  -1.514 +0.02 -0.02    -0.750 OA 
DOCKED: ATOM     11 O6   LIG A   1       1.856   7.124  -4.144 +0.01 -0.00    -0.750 OA 
DOCKED: ATOM     12 O7   LIG A   1       3.723   6.829  -5.934 +0.01 +0.01    -0.750 OA 
DOCKED: ATOM     13 O8   LIG A   1       2.529   9.001  -5.855 +0.00 +0.00    -0.750 OA 
DOCKED: ATOM     14 O9   LIG A   1       4.364   6.924  -3.271 +0.02 -0.00    -0.750 OA 
DOCKED: ATOM     15 O10  LIG A   1       1.183   5.171  -2.427 +0.05 -0.03    -0.750 OA 
DOCKED: ATOM     16 O11  LIG A   1       5.101   8.967  -4.920 +0.01 +0.00    -0.800 OA 
DOCKED: ATOM     17 O12  LIG A   1      -0.047   9.219  -6.658 +0.00 +0.00    -0.750 OA 
DOCKED: ATOM     18 O13  LIG A   1      -1.436   5.351  -3.072 +0.04 +0.00    -0.800 OA 
DOCKED: ATOM     19 O14  LIG A   1       3.668   4.874  -1.521 -0.58 -0.34    -0.800 OA 
DOCKED: ATOM     20 V6   LIG A   1       2.354   5.591  -5.507 +0.05 -0.01    +1.500 Zn 
DOCKED: ATOM     21 O15  LIG A   1       2.490   4.606  -6.863 +0.01 +0.01    -0.750 OA 
DOCKED: ATOM     22 V7   LIG A   1       1.592   5.470  -8.497 +0.00 -0.01    +1.500 Zn 
DOCKED: ATOM     23 O16  LIG A   1       1.881   4.350  -9.609 +0.00 +0.01    -0.800 OA 
DOCKED: ATOM     24 O17  LIG A   1      -0.026   4.764  -7.668 +0.00 +0.01    -0.750 OA 
DOCKED: ATOM     25 V8   LIG A   1      -0.619   5.714  -6.349 +0.02 -0.01    +1.500 Zn 
DOCKED: ATOM     26 O18  LIG A   1       1.215   6.904  -6.718 +0.00 +0.00    -0.750 OA 
DOCKED: ATOM     27 O19  LIG A   1       3.136   6.495  -8.538 +0.00 +0.00    -0.750 OA 
DOCKED: ATOM     28 V9   LIG A   1       3.149   7.919  -7.418 +0.00 -0.01    +1.500 Zn 
DOCKED: ATOM     29 V10  LIG A   1       0.229   8.207  -8.357 +0.00 -0.00    +1.500 Zn 
DOCKED: ATOM     30 O20  LIG A   1       0.604   6.709  -9.348 +0.00 +0.00    -0.750 OA 
DOCKED: ATOM     31 O21  LIG A   1      -1.294   7.104  -7.591 +0.00 +0.00    -0.750 OA 
DOCKED: ATOM     32 O22  LIG A   1      -0.653   7.199  -4.927 +0.00 +0.00    -0.750 OA 
DOCKED: ATOM     33 O23  LIG A   1       1.888   8.858  -8.435 +0.00 +0.00    -0.750 OA 
DOCKED: ATOM     34 O24  LIG A   1       4.506   8.678  -7.789 +0.00 +0.00    -0.800 OA 
DOCKED: ATOM     35 O25  LIG A   1      -0.597   9.155  -9.340 +0.00 +0.00    -0.800 OA 
DOCKED: ATOM     36 O26  LIG A   1       0.541   5.028  -5.006 +0.03 +0.01    -0.750 OA 
DOCKED: ATOM     37 O27  LIG A   1      -2.029   5.062  -5.943 +0.02 +0.02    -0.800 OA 
DOCKED: ATOM     38 O28  LIG A   1       3.117   4.810  -4.205 +0.01 +0.01    -0.750 OA 
DOCKED: ENDROOT
DOCKED: TORSDOF 0
DOCKED: TER
DOCKED: ENDMDL
________________________________________________________________________________


    FINAL DOCKED STATE:
    ________________________


Run:   15 / 20
Time taken for this run:   0.007s

DOCKED: MODEL        15
DOCKED: USER    Run = 15
DOCKED: USER
DOCKED: USER    Estimated Free Energy of Binding    =  -0.25 kcal/mol  [=(1)+(2)+(3)-(4)]
DOCKED: USER
DOCKED: USER    (1) Final Intermolecular Energy     =  -0.25 kcal/mol
DOCKED: USER        vdW + Hbond + desolv Energy     =  -0.02 kcal/mol
DOCKED: USER        Electrostatic Energy            =  -0.23 kcal/mol
DOCKED: USER        Moving Ligand-Fixed Receptor    =  -0.25 kcal/mol
DOCKED: USER        Moving Ligand-Moving Receptor   =  +0.00 kcal/mol
DOCKED: USER    (2) Final Total Internal Energy     =  +0.00 kcal/mol
DOCKED: USER    (3) Torsional Free Energy           =  +0.00 kcal/mol
DOCKED: USER    (4) Unbound System's Energy         =  +0.00 kcal/mol
DOCKED: USER
DOCKED: USER
DOCKED: USER                              x       y       z     vdW  Elec       q    Type
DOCKED: USER                           _______ _______ _______ _____ _____    ______ ____
DOCKED: ROOT
DOCKED: ATOM      1 V1   LIG A   1      -1.295   6.032  -6.732 +0.01 -0.01    +1.500 Zn 
DOCKED: ATOM      2 V2   LIG A   1       1.669   6.003  -7.613 +0.01 -0.01    +1.500 Zn 
DOCKED: ATOM      3 V3   LIG A   1       0.943   5.943  -4.608 +0.06 +0.00    +1.500 Zn 
DOCKED: ATOM      4 V4   LIG A   1      -0.888   8.453  -4.845 +0.00 +0.00    +1.500 Zn 
DOCKED: ATOM      5 V5   LIG A   1      -0.257   8.687  -7.851 +0.00 -0.00    +1.500 Zn 
DOCKED: ATOM      6 O1   LIG A   1      -2.505   5.021  -7.026 +0.01 +0.01    -0.800 OA 
DOCKED: ATOM      7 O2   LIG A   1       0.146   5.191  -7.741 +0.00 +0.01    -0.750 OA 
DOCKED: ATOM      8 O3   LIG A   1      -0.392   5.079  -5.153 +0.02 +0.01    -0.750 OA 
DOCKED: ATOM      9 O4   LIG A   1      -1.987   7.125  -5.404 +0.00 +0.00    -0.750 OA 
DOCKED: ATOM     10 O5   LIG A   1      -1.439   7.293  -8.010 +0.00 +0.00    -0.750 OA 
DOCKED: ATOM     11 O6   LIG A   1       0.568   7.299  -6.192 +0.00 +0.00    -0.750 OA 
DOCKED: ATOM     12 O7   LIG A   1       3.058   7.365  -6.947 +0.00 +0.00    -0.750 OA 
DOCKED: ATOM     13 O8   LIG A   1       2.208   5.262  -5.946 +0.01 +0.01    -0.750 OA 
DOCKED: ATOM     14 O9   LIG A   1       1.047   7.459  -8.807 +0.00 +0.00    -0.750 OA 
DOCKED: ATOM     15 O10  LIG A   1      -1.070   9.415  -6.441 +0.00 +0.00    -0.750 OA 
DOCKED: ATOM     16 O11  LIG A   1       2.648   5.257  -8.647 +0.00 +0.01    -0.800 OA 
DOCKED: ATOM     17 O12  LIG A   1       1.632   5.093  -3.307 +0.04 -0.02    -0.750 OA 
DOCKED: ATOM     18 O13  LIG A   1      -1.800   9.299  -3.840 +0.00 -0.00    -0.800 OA 
DOCKED: ATOM     19 O14  LIG A   1      -0.621   9.674  -9.052 +0.00 +0.00    -0.800 OA 
DOCKED: ATOM     20 V6   LIG A   1       2.136   8.693  -5.959 +0.00 -0.00    +1.500 Zn 
DOCKED: ATOM     21 O15  LIG A   1       3.472   9.557  -5.415 +0.00 +0.00    -0.750 OA 
DOCKED: ATOM     22 V7   LIG A   1       4.375   8.603  -3.834 +0.03 -0.00    +1.500 Zn 
DOCKED: ATOM     23 O16  LIG A   1       5.585   9.615  -3.542 +0.01 +0.00    -0.800 OA 
DOCKED: ATOM     24 O17  LIG A   1       2.933   9.445  -2.826 +0.01 -0.00    -0.750 OA 
DOCKED: ATOM     25 V8   LIG A   1       1.410   8.634  -2.954 +0.01 +0.01    +1.500 Zn 
DOCKED: ATOM     26 O18  LIG A   1       2.512   7.337  -4.375 +0.01 -0.00    -0.750 OA 
DOCKED: ATOM     27 O19  LIG A   1       5.066   7.511  -5.163 +0.01 +0.01    -0.750 OA 
DOCKED: ATOM     28 V9   LIG A   1       3.967   6.184  -5.722 +0.05 -0.02    +1.500 Zn 
DOCKED: ATOM     29 V10  LIG A   1       3.337   5.949  -2.716 +0.16 +0.07    +1.500 Zn 
DOCKED: ATOM     30 O20  LIG A   1       4.518   7.344  -2.558 +0.02 -0.01    -0.750 OA 
DOCKED: ATOM     31 O21  LIG A   1       2.032   7.178  -1.760 +0.02 -0.02    -0.750 OA 
DOCKED: ATOM     32 O22  LIG A   1       0.021   7.272  -3.620 +0.01 -0.00    -0.750 OA 
DOCKED: ATOM     33 O23  LIG A   1       4.150   5.222  -4.127 +0.00 +0.03    -0.750 OA 
DOCKED: ATOM     34 O24  LIG A   1       4.879   5.338  -6.726 +0.02 +0.02    -0.800 OA 
DOCKED: ATOM     35 O25  LIG A   1       3.701   4.963  -1.516 -0.59 -0.31    -0.800 OA 
DOCKED: ATOM     36 O26  LIG A   1       0.872   9.375  -4.621 +0.00 -0.00    -0.750 OA 
DOCKED: ATOM     37 O27  LIG A   1       0.432   9.378  -1.921 +0.00 -0.01    -0.800 OA 
DOCKED: ATOM     38 O28  LIG A   1       1.448   9.543  -7.260 +0.00 +0.00    -0.750 OA 
DOCKED: ENDROOT
DOCKED: TORSDOF 0
DOCKED: TER
DOCKED: ENDMDL
________________________________________________________________________________


    FINAL DOCKED STATE:
    ________________________


Run:   16 / 20
Time taken for this run:   0.007s

DOCKED: MODEL        16
DOCKED: USER    Run = 16
DOCKED: USER
DOCKED: USER    Estimated Free Energy of Binding    =  +0.00 kcal/mol  [=(1)+(2)+(3)-(4)]
DOCKED: USER
DOCKED: USER    (1) Final Intermolecular Energy     =  +0.00 kcal/mol
DOCKED: USER        vdW + Hbond + desolv Energy     =  +0.14 kcal/mol
DOCKED: USER        Electrostatic Energy            =  -0.14 kcal/mol
DOCKED: USER        Moving Ligand-Fixed Receptor    =  +0.00 kcal/mol
DOCKED: USER        Moving Ligand-Moving Receptor   =  +0.00 kcal/mol
DOCKED: USER    (2) Final Total Internal Energy     =  +0.00 kcal/mol
DOCKED: USER    (3) Torsional Free Energy           =  +0.00 kcal/mol
DOCKED: USER    (4) Unbound System's Energy         =  +0.00 kcal/mol
DOCKED: USER
DOCKED: USER
DOCKED: USER                              x       y       z     vdW  Elec       q    Type
DOCKED: USER                           _______ _______ _______ _____ _____    ______ ____
DOCKED: ROOT
DOCKED: ATOM      1 V1   LIG A   1       8.622  -4.215   6.648 +0.02 +0.01    +1.500 Zn 
DOCKED: ATOM      2 V2   LIG A   1       8.211  -6.807   5.011 +0.02 +0.01    +1.500 Zn 
DOCKED: ATOM      3 V3   LIG A   1       5.922  -4.742   5.247 +0.10 +0.08    +1.500 Zn 
DOCKED: ATOM      4 V4   LIG A   1       6.085  -4.690   8.358 +0.01 +0.01    +1.500 Zn 
DOCKED: ATOM      5 V5   LIG A   1       8.360  -6.767   8.320 +0.00 +0.00    +1.500 Zn 
DOCKED: ATOM      6 O1   LIG A   1       9.669  -3.010   6.492 +0.01 -0.01    -0.800 OA 
DOCKED: ATOM      7 O2   LIG A   1       9.178  -5.383   5.188 +0.01 -0.01    -0.750 OA 
DOCKED: ATOM      8 O3   LIG A   1       7.190  -3.639   5.293 +0.02 -0.02    -0.750 OA 
DOCKED: ATOM      9 O4   LIG A   1       7.414  -3.552   7.888 +0.01 -0.01    -0.750 OA 
DOCKED: ATOM     10 O5   LIG A   1       9.396  -5.337   7.825 +0.00 -0.00    -0.750 OA 
DOCKED: ATOM     11 O6   LIG A   1       7.024  -5.892   6.644 +0.01 -0.01    -0.750 OA 
DOCKED: ATOM     12 O7   LIG A   1       6.663  -8.119   5.344 +0.01 -0.00    -0.750 OA 
DOCKED: ATOM     13 O8   LIG A   1       6.783  -6.019   4.031 +0.02 -0.02    -0.750 OA 
DOCKED: ATOM     14 O9   LIG A   1       9.043  -7.628   6.612 +0.00 -0.00    -0.750 OA 
DOCKED: ATOM     15 O10  LIG A   1       7.242  -5.805   9.321 +0.00 -0.00    -0.750 OA 
DOCKED: ATOM     16 O11  LIG A   1       8.943  -7.693   3.888 +0.01 -0.00    -0.800 OA 
DOCKED: ATOM     17 O12  LIG A   1       4.784  -4.196   4.108 -0.56 -0.23    -0.750 OA 
DOCKED: ATOM     18 O13  LIG A   1       5.321  -3.914   9.528 +0.00 -0.00    -0.800 OA 
DOCKED: ATOM     19 O14  LIG A   1       9.239  -7.563   9.389 +0.00 -0.00    -0.800 OA 
DOCKED: ATOM     20 V6   LIG A   1       5.769  -7.567   6.922 +0.01 +0.01    +1.500 Zn 
DOCKED: ATOM     21 O15  LIG A   1       4.501  -8.670   6.875 +0.00 -0.00    -0.750 OA 
DOCKED: ATOM     22 V7   LIG A   1       3.068  -8.093   5.520 +0.02 -0.00    +1.500 Zn 
DOCKED: ATOM     23 O16  LIG A   1       2.022  -9.299   5.677 +0.00 +0.00    -0.800 OA 
DOCKED: ATOM     24 O17  LIG A   1       2.513  -6.926   6.981 +0.01 -0.00    -0.750 OA 
DOCKED: ATOM     25 V8   LIG A   1       3.479  -5.502   7.158 +0.03 +0.01    +1.500 Zn 
DOCKED: ATOM     26 O18  LIG A   1       4.667  -6.417   5.524 +0.02 -0.01    -0.750 OA 
DOCKED: ATOM     27 O19  LIG A   1       4.276  -8.756   4.281 +0.01 +0.00    -0.750 OA 
DOCKED: ATOM     28 V9   LIG A   1       5.605  -7.619   3.810 +0.05 +0.00    +1.500 Zn 
DOCKED: ATOM     29 V10  LIG A   1       3.331  -5.541   3.849 +0.22 +0.07    +1.500 Zn 
DOCKED: ATOM     30 O20  LIG A   1       2.295  -6.972   4.344 +0.04 +0.01    -0.750 OA 
DOCKED: ATOM     31 O21  LIG A   1       2.648  -4.681   5.556 +0.04 -0.01    -0.750 OA 
DOCKED: ATOM     32 O22  LIG A   1       5.027  -4.190   6.825 +0.02 -0.01    -0.750 OA 
DOCKED: ATOM     33 O23  LIG A   1       4.449  -6.505   2.848 +0.02 -0.00    -0.750 OA 
DOCKED: ATOM     34 O24  LIG A   1       6.370  -8.395   2.641 +0.01 +0.01    -0.800 OA 
DOCKED: ATOM     35 O25  LIG A   1       2.452  -4.747   2.780 -0.06 +0.00    -0.800 OA 
DOCKED: ATOM     36 O26  LIG A   1       4.907  -6.290   8.138 +0.00 -0.00    -0.750 OA 
DOCKED: ATOM     37 O27  LIG A   1       2.748  -4.616   8.279 +0.01 -0.00    -0.800 OA 
DOCKED: ATOM     38 O28  LIG A   1       6.906  -8.113   8.060 +0.00 -0.00    -0.750 OA 
DOCKED: ENDROOT
DOCKED: TORSDOF 0
DOCKED: TER
DOCKED: ENDMDL
________________________________________________________________________________


    FINAL DOCKED STATE:
    ________________________


Run:   17 / 20
Time taken for this run:   0.007s

DOCKED: MODEL        17
DOCKED: USER    Run = 17
DOCKED: USER
DOCKED: USER    Estimated Free Energy of Binding    =  +0.04 kcal/mol  [=(1)+(2)+(3)-(4)]
DOCKED: USER
DOCKED: USER    (1) Final Intermolecular Energy     =  +0.04 kcal/mol
DOCKED: USER        vdW + Hbond + desolv Energy     =  +0.16 kcal/mol
DOCKED: USER        Electrostatic Energy            =  -0.12 kcal/mol
DOCKED: USER        Moving Ligand-Fixed Receptor    =  +0.04 kcal/mol
DOCKED: USER        Moving Ligand-Moving Receptor   =  +0.00 kcal/mol
DOCKED: USER    (2) Final Total Internal Energy     =  +0.00 kcal/mol
DOCKED: USER    (3) Torsional Free Energy           =  +0.00 kcal/mol
DOCKED: USER    (4) Unbound System's Energy         =  +0.00 kcal/mol
DOCKED: USER
DOCKED: USER
DOCKED: USER                              x       y       z     vdW  Elec       q    Type
DOCKED: USER                           _______ _______ _______ _____ _____    ______ ____
DOCKED: ROOT
DOCKED: ATOM      1 V1   LIG A   1       0.457   6.031  -6.647 +0.01 -0.01    +1.500 Zn 
DOCKED: ATOM      2 V2   LIG A   1       2.250   8.489  -7.202 +0.00 -0.00    +1.500 Zn 
DOCKED: ATOM      3 V3   LIG A   1       3.434   5.983  -5.832 +0.05 -0.02    +1.500 Zn 
DOCKED: ATOM      4 V4   LIG A   1       1.214   5.941  -3.646 +0.09 +0.02    +1.500 Zn 
DOCKED: ATOM      5 V5   LIG A   1      -0.091   8.455  -4.858 +0.00 +0.00    +1.500 Zn 
DOCKED: ATOM      6 O1   LIG A   1      -0.379   5.077  -7.629 +0.00 +0.01    -0.800 OA 
DOCKED: ATOM      7 O2   LIG A   1       1.215   7.302  -7.917 +0.00 +0.00    -0.750 OA 
DOCKED: ATOM      8 O3   LIG A   1       2.317   5.174  -6.795 +0.01 +0.01    -0.750 OA 
DOCKED: ATOM      9 O4   LIG A   1       0.396   5.116  -5.036 +0.02 +0.01    -0.750 OA 
DOCKED: ATOM     10 O5   LIG A   1      -0.725   7.282  -6.117 +0.00 +0.00    -0.750 OA 
DOCKED: ATOM     11 O6   LIG A   1       1.871   7.330  -5.351 +0.01 +0.00    -0.750 OA 
DOCKED: ATOM     12 O7   LIG A   1       3.345   9.439  -5.744 +0.00 +0.00    -0.750 OA 
DOCKED: ATOM     13 O8   LIG A   1       3.823   7.423  -7.107 +0.00 +0.00    -0.750 OA 
DOCKED: ATOM     14 O9   LIG A   1       0.695   9.455  -6.441 +0.00 +0.00    -0.750 OA 
DOCKED: ATOM     15 O10  LIG A   1      -0.101   7.269  -3.527 +0.01 -0.00    -0.750 OA 
DOCKED: ATOM     16 O11  LIG A   1       2.610   9.520  -8.381 +0.00 +0.00    -0.800 OA 
DOCKED: ATOM     17 O12  LIG A   1       4.942   5.217  -6.009 +0.02 +0.02    -0.750 OA 
DOCKED: ATOM     18 O13  LIG A   1       0.863   5.011  -2.395 +0.06 -0.03    -0.800 OA 
DOCKED: ATOM     19 O14  LIG A   1      -1.325   9.411  -4.526 +0.00 -0.00    -0.800 OA 
DOCKED: ATOM     20 V6   LIG A   1       2.848   8.697  -4.072 +0.02 +0.00    +1.500 Zn 
DOCKED: ATOM     21 O15  LIG A   1       3.964   9.506  -3.110 +0.01 -0.00    -0.750 OA 
DOCKED: ATOM     22 V7   LIG A   1       5.826   8.649  -3.258 +0.04 -0.01    +1.500 Zn 
DOCKED: ATOM     23 O16  LIG A   1       6.661   9.603  -2.276 +0.01 +0.00    -0.800 OA 
DOCKED: ATOM     24 O17  LIG A   1       5.067   7.378  -1.987 +0.03 -0.01    -0.750 OA 
DOCKED: ATOM     25 V8   LIG A   1       4.032   6.191  -2.703 +0.16 +0.05    +1.500 Zn 
DOCKED: ATOM     26 O18  LIG A   1       4.411   7.351  -4.554 +0.02 +0.00    -0.750 OA 
DOCKED: ATOM     27 O19  LIG A   1       5.886   9.563  -4.869 +0.00 +0.00    -0.750 OA 
DOCKED: ATOM     28 V9   LIG A   1       5.067   8.738  -6.259 +0.00 -0.01    +1.500 Zn 
DOCKED: ATOM     29 V10  LIG A   1       6.372   6.224  -5.047 +0.10 -0.04    +1.500 Zn 
DOCKED: ATOM     30 O20  LIG A   1       7.007   7.398  -3.787 +0.03 +0.01    -0.750 OA 
DOCKED: ATOM     31 O21  LIG A   1       5.587   5.224  -3.464 -0.02 +0.06    -0.750 OA 
DOCKED: ATOM     32 O22  LIG A   1       2.937   5.241  -4.160 +0.02 +0.00    -0.750 OA 
DOCKED: ATOM     33 O23  LIG A   1       6.383   7.412  -6.378 +0.01 +0.01    -0.750 OA 
DOCKED: ATOM     34 O24  LIG A   1       5.419   9.669  -7.510 +0.00 +0.00    -0.800 OA 
DOCKED: ATOM     35 O25  LIG A   1       7.607   5.270  -5.379 +0.03 +0.02    -0.800 OA 
DOCKED: ATOM     36 O26  LIG A   1       2.459   7.256  -2.798 +0.02 -0.01    -0.750 OA 
DOCKED: ATOM     37 O27  LIG A   1       3.672   5.160  -1.525 -0.60 -0.23    -0.800 OA 
DOCKED: ATOM     38 O28  LIG A   1       1.341   9.463  -3.896 +0.00 -0.00    -0.750 OA 
DOCKED: ENDROOT
DOCKED: TORSDOF 0
DOCKED: TER
DOCKED: ENDMDL
________________________________________________________________________________


    FINAL DOCKED STATE:
    ________________________


Run:   18 / 20
Time taken for this run:   0.007s

DOCKED: MODEL        18
DOCKED: USER    Run = 18
DOCKED: USER
DOCKED: USER    Estimated Free Energy of Binding    =  +0.15 kcal/mol  [=(1)+(2)+(3)-(4)]
DOCKED: USER
DOCKED: USER    (1) Final Intermolecular Energy     =  +0.15 kcal/mol
DOCKED: USER        vdW + Hbond + desolv Energy     =  +0.29 kcal/mol
DOCKED: USER        Electrostatic Energy            =  -0.14 kcal/mol
DOCKED: USER        Moving Ligand-Fixed Receptor    =  +0.15 kcal/mol
DOCKED: USER        Moving Ligand-Moving Receptor   =  +0.00 kcal/mol
DOCKED: USER    (2) Final Total Internal Energy     =  +0.00 kcal/mol
DOCKED: USER    (3) Torsional Free Energy           =  +0.00 kcal/mol
DOCKED: USER    (4) Unbound System's Energy         =  +0.00 kcal/mol
DOCKED: USER
DOCKED: USER
DOCKED: USER                              x       y       z     vdW  Elec       q    Type
DOCKED: USER                           _______ _______ _______ _____ _____    ______ ____
DOCKED: ROOT
DOCKED: ATOM      1 V1   LIG A   1       3.810   8.593  -1.113 +0.04 +0.02    +1.500 Zn 
DOCKED: ATOM      2 V2   LIG A   1       4.123   6.252  -3.110 +0.14 +0.02    +1.500 Zn 
DOCKED: ATOM      3 V3   LIG A   1       2.503   8.763  -3.905 +0.01 +0.00    +1.500 Zn 
DOCKED: ATOM      4 V4   LIG A   1       0.723   8.609  -1.352 +0.01 +0.02    +1.500 Zn 
DOCKED: ATOM      5 V5   LIG A   1       2.208   6.079  -0.412 +0.17 +0.10    +1.500 Zn 
DOCKED: ATOM      6 O1   LIG A   1       4.892   9.538  -0.400 +0.01 -0.00    -0.800 OA 
DOCKED: ATOM      7 O2   LIG A   1       4.969   7.411  -2.143 +0.03 -0.01    -0.750 OA 
DOCKED: ATOM      8 O3   LIG A   1       3.617   9.548  -2.920 +0.01 -0.00    -0.750 OA 
DOCKED: ATOM      9 O4   LIG A   1       2.208   9.442  -0.731 +0.00 -0.01    -0.750 OA 
DOCKED: ATOM     10 O5   LIG A   1       3.524   7.264   0.068 +0.03 -0.02    -0.750 OA 
DOCKED: ATOM     11 O6   LIG A   1       2.331   7.321  -2.362 +0.02 -0.02    -0.750 OA 
DOCKED: ATOM     12 O7   LIG A   1       2.528   5.306  -3.998 +0.02 -0.00    -0.750 OA 
DOCKED: ATOM     13 O8   LIG A   1       3.734   7.393  -4.582 +0.01 +0.00    -0.750 OA 
DOCKED: ATOM     14 O9   LIG A   1       3.663   5.180  -1.507 -0.61 -0.21    -0.750 OA 
DOCKED: ATOM     15 O10  LIG A   1       0.866   7.213  -0.112 +0.02 -0.02    -0.750 OA 
DOCKED: ATOM     16 O11  LIG A   1       5.252   5.285  -3.720 -0.00 +0.06    -0.800 OA 
DOCKED: ATOM     17 O12  LIG A   1       2.401   9.611  -5.374 +0.00 -0.00    -0.750 OA 
DOCKED: ATOM     18 O13  LIG A   1      -0.476   9.473  -0.743 +0.00 -0.01    -0.800 OA 
DOCKED: ATOM     19 O14  LIG A   1       2.117   5.050   0.804 +0.06 -0.05    -0.800 OA 
DOCKED: ATOM     20 V6   LIG A   1       0.945   5.959  -3.187 +0.10 +0.02    +1.500 Zn 
DOCKED: ATOM     21 O15  LIG A   1      -0.169   5.173  -4.171 +0.03 +0.00    -0.750 OA 
DOCKED: ATOM     22 V7   LIG A   1      -0.362   6.129  -5.979 +0.02 -0.01    +1.500 Zn 
DOCKED: ATOM     23 O16  LIG A   1      -1.444   5.183  -6.691 +0.01 +0.01    -0.800 OA 
DOCKED: ATOM     24 O17  LIG A   1      -1.522   7.311  -4.948 +0.00 +0.00    -0.750 OA 
DOCKED: ATOM     25 V8   LIG A   1      -0.675   8.470  -3.981 +0.00 +0.00    +1.500 Zn 
DOCKED: ATOM     26 O18  LIG A   1       1.117   7.400  -4.729 +0.01 -0.00    -0.750 OA 
DOCKED: ATOM     27 O19  LIG A   1       1.240   5.279  -6.360 +0.01 +0.01    -0.750 OA 
DOCKED: ATOM     28 V9   LIG A   1       2.725   6.112  -5.740 +0.03 -0.01    +1.500 Zn 
DOCKED: ATOM     29 V10  LIG A   1       1.240   8.643  -6.679 +0.00 -0.00    +1.500 Zn 
DOCKED: ATOM     30 O20  LIG A   1      -0.076   7.457  -7.159 +0.00 +0.00    -0.750 OA 
DOCKED: ATOM     31 O21  LIG A   1      -0.216   9.542  -5.584 +0.00 -0.00    -0.750 OA 
DOCKED: ATOM     32 O22  LIG A   1       0.919   9.416  -3.093 +0.00 -0.00    -0.750 OA 
DOCKED: ATOM     33 O23  LIG A   1       2.582   7.508  -6.979 +0.00 +0.00    -0.750 OA 
DOCKED: ATOM     34 O24  LIG A   1       3.924   5.248  -6.348 +0.02 +0.02    -0.800 OA 
DOCKED: ATOM     35 O25  LIG A   1       1.331   9.671  -7.895 +0.00 +0.00    -0.800 OA 
DOCKED: ATOM     36 O26  LIG A   1      -0.286   7.329  -2.509 +0.01 -0.01    -0.750 OA 
DOCKED: ATOM     37 O27  LIG A   1      -1.804   9.436  -3.372 +0.00 -0.00    -0.800 OA 
DOCKED: ATOM     38 O28  LIG A   1       1.047   5.111  -1.718 +0.05 -0.04    -0.750 OA 
DOCKED: ENDROOT
DOCKED: TORSDOF 0
DOCKED: TER
DOCKED: ENDMDL
________________________________________________________________________________


    FINAL DOCKED STATE:
    ________________________


Run:   19 / 20
Time taken for this run:   0.007s

DOCKED: MODEL        19
DOCKED: USER    Run = 19
DOCKED: USER
DOCKED: USER    Estimated Free Energy of Binding    =  -0.26 kcal/mol  [=(1)+(2)+(3)-(4)]
DOCKED: USER
DOCKED: USER    (1) Final Intermolecular Energy     =  -0.26 kcal/mol
DOCKED: USER        vdW + Hbond + desolv Energy     =  +0.01 kcal/mol
DOCKED: USER        Electrostatic Energy            =  -0.27 kcal/mol
DOCKED: USER        Moving Ligand-Fixed Receptor    =  -0.26 kcal/mol
DOCKED: USER        Moving Ligand-Moving Receptor   =  +0.00 kcal/mol
DOCKED: USER    (2) Final Total Internal Energy     =  +0.00 kcal/mol
DOCKED: USER    (3) Torsional Free Energy           =  +0.00 kcal/mol
DOCKED: USER    (4) Unbound System's Energy         =  +0.00 kcal/mol
DOCKED: USER
DOCKED: USER
DOCKED: USER                              x       y       z     vdW  Elec       q    Type
DOCKED: USER                           _______ _______ _______ _____ _____    ______ ____
DOCKED: ROOT
DOCKED: ATOM      1 V1   LIG A   1       0.241   8.582  -8.159 +0.00 -0.00    +1.500 Zn 
DOCKED: ATOM      2 V2   LIG A   1      -0.491   8.581  -5.154 +0.00 +0.00    +1.500 Zn 
DOCKED: ATOM      3 V3   LIG A   1       2.475   8.583  -6.029 +0.00 -0.00    +1.500 Zn 
DOCKED: ATOM      4 V4   LIG A   1       2.087   6.111  -7.886 +0.00 -0.01    +1.500 Zn 
DOCKED: ATOM      5 V5   LIG A   1      -0.889   5.937  -7.108 +0.01 -0.01    +1.500 Zn 
DOCKED: ATOM      6 O1   LIG A   1      -0.089   9.620  -9.337 +0.00 +0.00    -0.800 OA 
DOCKED: ATOM      7 O2   LIG A   1      -0.674   9.421  -6.655 +0.00 +0.00    -0.750 OA 
DOCKED: ATOM      8 O3   LIG A   1       1.886   9.482  -7.321 +0.00 +0.00    -0.750 OA 
DOCKED: ATOM      9 O4   LIG A   1       1.506   7.470  -8.933 +0.00 +0.00    -0.750 OA 
DOCKED: ATOM     10 O5   LIG A   1      -1.073   7.354  -8.258 +0.00 +0.00    -0.750 OA 
DOCKED: ATOM     11 O6   LIG A   1       0.842   7.271  -6.346 +0.00 +0.00    -0.750 OA 
DOCKED: ATOM     12 O7   LIG A   1       0.211   7.181  -3.822 +0.01 -0.00    -0.750 OA 
DOCKED: ATOM     13 O8   LIG A   1       1.219   9.274  -4.688 +0.00 -0.00    -0.750 OA 
DOCKED: ATOM     14 O9   LIG A   1      -1.749   7.164  -5.738 +0.00 +0.00    -0.750 OA 
DOCKED: ATOM     15 O10  LIG A   1       0.460   5.190  -8.003 +0.00 +0.01    -0.750 OA 
DOCKED: ATOM     16 O11  LIG A   1      -1.456   9.334  -4.113 +0.00 -0.00    -0.800 OA 
DOCKED: ATOM     17 O12  LIG A   1       3.830   9.390  -5.393 +0.00 +0.00    -0.750 OA 
DOCKED: ATOM     18 O13  LIG A   1       3.024   5.258  -8.860 +0.00 +0.01    -0.800 OA 
DOCKED: ATOM     19 O14  LIG A   1      -2.130   4.985  -7.427 +0.01 +0.01    -0.800 OA 
DOCKED: ATOM     20 V6   LIG A   1       1.119   5.845  -4.814 +0.06 -0.00    +1.500 Zn 
DOCKED: ATOM     21 O15  LIG A   1       1.708   4.946  -3.521 +0.04 -0.01    -0.750 OA 
DOCKED: ATOM     22 V7   LIG A   1       3.354   5.847  -2.683 +0.17 +0.08    +1.500 Zn 
DOCKED: ATOM     23 O16  LIG A   1       3.682   4.808  -1.505 -0.58 -0.37    -0.800 OA 
DOCKED: ATOM     24 O17  LIG A   1       4.269   5.007  -4.187 -0.00 +0.04    -0.750 OA 
DOCKED: ATOM     25 V8   LIG A   1       4.085   5.847  -5.688 +0.07 -0.03    +1.500 Zn 
DOCKED: ATOM     26 O18  LIG A   1       2.752   7.157  -4.496 +0.01 -0.00    -0.750 OA 
DOCKED: ATOM     27 O19  LIG A   1       2.089   6.958  -1.909 +0.02 -0.02    -0.750 OA 
DOCKED: ATOM     28 V9   LIG A   1       1.508   8.317  -2.957 +0.02 +0.01    +1.500 Zn 
DOCKED: ATOM     29 V10  LIG A   1       4.484   8.492  -3.734 +0.04 -0.00    +1.500 Zn 
DOCKED: ATOM     30 O20  LIG A   1       4.667   7.074  -2.584 +0.03 -0.01    -0.750 OA 
DOCKED: ATOM     31 O21  LIG A   1       5.343   7.264  -5.104 +0.02 +0.01    -0.750 OA 
DOCKED: ATOM     32 O22  LIG A   1       3.384   7.247  -7.020 +0.00 +0.00    -0.750 OA 
DOCKED: ATOM     33 O23  LIG A   1       3.133   9.238  -2.839 +0.01 -0.00    -0.750 OA 
DOCKED: ATOM     34 O24  LIG A   1       0.571   9.170  -1.983 +0.00 -0.01    -0.800 OA 
DOCKED: ATOM     35 O25  LIG A   1       5.723   9.444  -3.415 +0.01 +0.00    -0.800 OA 
DOCKED: ATOM     36 O26  LIG A   1       2.375   5.154  -6.154 +0.01 +0.01    -0.750 OA 
DOCKED: ATOM     37 O27  LIG A   1       5.050   5.095  -6.729 +0.02 +0.02    -0.800 OA 
DOCKED: ATOM     38 O28  LIG A   1      -0.235   5.039  -5.449 +0.02 +0.01    -0.750 OA 
DOCKED: ENDROOT
DOCKED: TORSDOF 0
DOCKED: TER
DOCKED: ENDMDL
________________________________________________________________________________


    FINAL DOCKED STATE:
    ________________________


Run:   20 / 20
Time taken for this run:   0.007s

DOCKED: MODEL        20
DOCKED: USER    Run = 20
DOCKED: USER
DOCKED: USER    Estimated Free Energy of Binding    =  -0.17 kcal/mol  [=(1)+(2)+(3)-(4)]
DOCKED: USER
DOCKED: USER    (1) Final Intermolecular Energy     =  -0.17 kcal/mol
DOCKED: USER        vdW + Hbond + desolv Energy     =  +0.05 kcal/mol
DOCKED: USER        Electrostatic Energy            =  -0.22 kcal/mol
DOCKED: USER        Moving Ligand-Fixed Receptor    =  -0.17 kcal/mol
DOCKED: USER        Moving Ligand-Moving Receptor   =  +0.00 kcal/mol
DOCKED: USER    (2) Final Total Internal Energy     =  +0.00 kcal/mol
DOCKED: USER    (3) Torsional Free Energy           =  +0.00 kcal/mol
DOCKED: USER    (4) Unbound System's Energy         =  +0.00 kcal/mol
DOCKED: USER
DOCKED: USER
DOCKED: USER                              x       y       z     vdW  Elec       q    Type
DOCKED: USER                           _______ _______ _______ _____ _____    ______ ____
DOCKED: ROOT
DOCKED: ATOM      1 V1   LIG A   1       1.065  -8.690   5.992 +0.00 -0.01    +1.500 Zn 
DOCKED: ATOM      2 V2   LIG A   1       1.863  -5.793   5.262 +0.15 -0.00    +1.500 Zn 
DOCKED: ATOM      3 V3   LIG A   1       4.047  -7.912   5.808 +0.02 +0.00    +1.500 Zn 
DOCKED: ATOM      4 V4   LIG A   1       2.805  -8.705   8.554 +0.00 +0.00    +1.500 Zn 
DOCKED: ATOM      5 V5   LIG A   1       0.565  -6.621   8.195 +0.00 +0.00    +1.500 Zn 
DOCKED: ATOM      6 O1   LIG A   1       0.216  -9.795   5.198 +0.00 +0.01    -0.800 OA 
DOCKED: ATOM      7 O2   LIG A   1       0.986  -7.192   4.746 +0.03 +0.01    -0.750 OA 
DOCKED: ATOM      8 O3   LIG A   1       2.914  -8.961   5.141 +0.01 +0.00    -0.750 OA 
DOCKED: ATOM      9 O4   LIG A   1       1.799  -9.662   7.390 +0.00 +0.00    -0.750 OA 
DOCKED: ATOM     10 O5   LIG A   1      -0.141  -7.864   7.044 +0.00 +0.00    -0.750 OA 
DOCKED: ATOM     11 O6   LIG A   1       2.455  -7.103   6.949 +0.01 -0.00    -0.750 OA 
DOCKED: ATOM     12 O7   LIG A   1       3.111  -4.640   6.421 +0.03 -0.01    -0.750 OA 
DOCKED: ATOM     13 O8   LIG A   1       3.590  -6.359   4.699 +0.03 -0.01    -0.750 OA 
DOCKED: ATOM     14 O9   LIG A   1       0.473  -5.359   6.607 +0.03 -0.00    -0.750 OA 
DOCKED: ATOM     15 O10  LIG A   1       1.317  -7.825   9.273 +0.00 -0.00    -0.750 OA 
DOCKED: ATOM     16 O11  LIG A   1       1.518  -4.644   4.192 +0.03 +0.00    -0.800 OA 
DOCKED: ATOM     17 O12  LIG A   1       5.544  -8.198   5.055 +0.01 -0.00    -0.750 OA 
DOCKED: ATOM     18 O13  LIG A   1       3.156  -9.759   9.703 +0.00 -0.00    -0.800 OA 
DOCKED: ATOM     19 O14  LIG A   1      -0.681  -6.084   9.035 +0.00 -0.00    -0.800 OA 
DOCKED: ATOM     20 V6   LIG A   1       3.427  -5.577   8.037 +0.02 +0.01    +1.500 Zn 
DOCKED: ATOM     21 O15  LIG A   1       4.559  -4.528   8.704 +0.01 -0.00    -0.750 OA 
DOCKED: ATOM     22 V7   LIG A   1       6.409  -4.799   7.852 +0.02 +0.01    +1.500 Zn 
DOCKED: ATOM     23 O16  LIG A   1       7.257  -3.693   8.648 +0.00 -0.00    -0.800 OA 
DOCKED: ATOM     24 O17  LIG A   1       6.487  -6.297   9.100 +0.00 -0.00    -0.750 OA 
DOCKED: ATOM     25 V8   LIG A   1       5.611  -7.696   8.584 +0.00 +0.00    +1.500 Zn 
DOCKED: ATOM     26 O18  LIG A   1       5.018  -6.385   6.896 +0.01 -0.01    -0.750 OA 
DOCKED: ATOM     27 O19  LIG A   1       5.675  -3.827   6.456 +0.02 -0.02    -0.750 OA 
DOCKED: ATOM     28 V9   LIG A   1       4.669  -4.783   5.292 +0.13 +0.09    +1.500 Zn 
DOCKED: ATOM     29 V10  LIG A   1       6.909  -6.867   5.651 +0.02 +0.01    +1.500 Zn 
DOCKED: ATOM     30 O20  LIG A   1       7.614  -5.625   6.802 +0.01 -0.01    -0.750 OA 
DOCKED: ATOM     31 O21  LIG A   1       7.001  -8.130   7.239 +0.00 -0.00    -0.750 OA 
DOCKED: ATOM     32 O22  LIG A   1       4.363  -8.849   7.425 +0.00 -0.00    -0.750 OA 
DOCKED: ATOM     33 O23  LIG A   1       6.156  -5.663   4.572 +0.01 -0.03    -0.750 OA 
DOCKED: ATOM     34 O24  LIG A   1       4.317  -3.730   4.143 -0.55 -0.27    -0.800 OA 
DOCKED: ATOM     35 O25  LIG A   1       8.155  -7.404   4.811 +0.01 -0.00    -0.800 OA 
DOCKED: ATOM     36 O26  LIG A   1       3.884  -7.130   9.147 +0.00 -0.00    -0.750 OA 
DOCKED: ATOM     37 O27  LIG A   1       5.955  -8.844   9.652 +0.00 -0.00    -0.800 OA 
DOCKED: ATOM     38 O28  LIG A   1       1.930  -5.291   8.790 +0.00 -0.00    -0.750 OA 
DOCKED: ENDROOT
DOCKED: TORSDOF 0
DOCKED: TER
DOCKED: ENDMDL
________________________________________________________________________________


    CLUSTERING HISTOGRAM
    ____________________


________________________________________________________________________________
     |           |     |           |     |
Clus | Lowest    | Run | Mean      | Num | Histogram
-ter | Binding   |     | Binding   | in  |
Rank | Energy    |     | Energy    | Clus|    5    10   15   20   25   30   35
_____|___________|_____|___________|_____|____:____|____:____|____:____|____:___
   1 |     -0.26 |   4 |     -0.16 |  13 |#############
   2 |     -0.26 |  12 |     -0.07 |   3 |###
   3 |     -0.17 |  20 |     -0.02 |   3 |###
   4 |     +0.20 |  10 |     +0.20 |   1 |#
_____|___________|_____|___________|_____|______________________________________


    RMSD TABLE
    __________


_______________________________________________________________________
     |      |      |           |         |                 |
Rank | Sub- | Run  | Binding   | Cluster | Reference       | Grep
     | Rank |      | Energy    | RMSD    | RMSD            | Pattern
_____|______|______|___________|_________|_________________|___________
   1      1      4       -0.26      0.00      3.29           RANKING
   1      2     19       -0.26      0.45      3.35           RANKING
   1      3      1       -0.25      0.36      3.27           RANKING
   1      4     15       -0.25      0.26      3.32           RANKING
   1      5      2       -0.25      0.42      3.28           RANKING
   1      6      8       -0.25      0.66      3.37           RANKING
   1      7      3       -0.24      0.42      3.32           RANKING
   1      8     14       -0.22      1.21      3.35           RANKING
   1      9      9       -0.18      1.28      3.31           RANKING
   1     10     13       -0.15      1.35      3.27           RANKING
   1     11     17       +0.04      1.49      3.23           RANKING
   1     12      7       +0.07      1.32      3.41           RANKING
   1     13     18       +0.15      1.51      2.39           RANKING
   2      1     12       -0.26      0.00     10.87           RANKING
   2      2     16       +0.00      1.60     10.59           RANKING
   2      3     11       +0.04      1.66     10.55           RANKING
   3      1     20       -0.17      0.00     11.00           RANKING
   3      2      6       +0.04      1.80     10.60           RANKING
   3      3      5       +0.07      1.42     10.51           RANKING
   4      1     10       +0.20      0.00      2.31           RANKING

Run time 0.150 sec
Idle time 0.297 sec
