AutoDock-GPU version: v1.6|Release|x64

**********************************************************
**    AutoDock-GPU AUTODOCKTOOLS-COMPATIBLE DLG FILE    **
**********************************************************


    DOCKING PARAMETERS
    ________________________


Ligand file:                               O20V10.pdbqt
Grid fld file:                             Hidrogel1.maps.fld

Random seed:                               1782265399, 68876
Number of runs:                            20
Number of energy evaluations:              1132076
Number of generations:                     42000
Size of population:                        150
Rate of crossover:                         80.000000%
Tournament selection probability limit:    60.000000%
Rate of mutation:                          2.000000%
Maximal allowed delta movement:            +/- 6.000000A
Maximal allowed delta angle:               +/- 90.000000

Rate of local search:                      100.000000%
Maximal number of local search iterations: 300
Rho lower bound:                           0.010000
Spread of local search delta movement:     2.000000A
Spread of local search delta angle:        74.999999
Limit of consecutive successes/failures:   4

Handle symmetry during clustering:         YES
RMSD tolerance:                            2.000000A

Program call in command line was:          D:\Programas\AutoDock-GPU.exe -M Hidrogel1.maps.fld -L O20V10.pdbqt --nrun 20 --resnam O20V10_hidrogel1 


    GRID PARAMETERS
    ________________________


Receptor name:                             Hidrogel1
Number of grid points (x, y, z):           99, 61, 81
Grid center (x, y, z):                     14.558000, -18.575000, 0.000000A
Grid size (x, y, z):                       36.750000, 22.500000, 30.000000A
Grid spacing:                              0.375000A


    LIGAND PARAMETERS
    ________________________


Ligand name:                               O20V10
Number of atoms:                           38
Number of rotatable bonds:                 0
Number of atom types:                      2


    DUMMY DATA (only for ADT-compatibility)
    ________________________


DPF> outlev 1
DPF> ga_run 20
DPF> fld Hidrogel1.maps.fld
DPF> move O20V10.pdbqt


    COUNTER STATES
    ________________________


Number of energy evaluations performed:    328132
Number of generations used:                20


    INPUT LIGAND PDBQT FILE:
    ________________________


INPUT-LIGAND-PDBQT: ROOT
INPUT-LIGAND-PDBQT: ATOM      1 V1   LIG A   1       2.120   5.955  -3.319  1.00  0.00    +1.500 Zn
INPUT-LIGAND-PDBQT: ATOM      2 V2   LIG A   1       3.966   4.593  -1.245  1.00  0.00    +1.500 Zn
INPUT-LIGAND-PDBQT: ATOM      3 V3   LIG A   1       0.901   4.221  -1.074  1.00  0.00    +1.500 Zn
INPUT-LIGAND-PDBQT: ATOM      4 V4   LIG A   1       0.372   7.291  -1.140  1.00  0.00    +1.500 Zn
INPUT-LIGAND-PDBQT: ATOM      5 V5   LIG A   1       3.397   7.856  -1.286  1.00  0.00    +1.500 Zn
INPUT-LIGAND-PDBQT: ATOM      6 O1   LIG A   1       2.029   5.823  -4.915  1.00  0.00    -0.800 OA
INPUT-LIGAND-PDBQT: ATOM      7 O2   LIG A   1       3.602   4.749  -2.929  1.00  0.00    -0.750 OA
INPUT-LIGAND-PDBQT: ATOM      8 O3   LIG A   1       0.995   4.334  -2.749  1.00  0.00    -0.750 OA
INPUT-LIGAND-PDBQT: ATOM      9 O4   LIG A   1       0.584   6.903  -2.897  1.00  0.00    -0.750 OA
INPUT-LIGAND-PDBQT: ATOM     10 O5   LIG A   1       3.208   7.363  -3.043  1.00  0.00    -0.750 OA
INPUT-LIGAND-PDBQT: ATOM     11 O6   LIG A   1       2.192   5.900  -1.004  1.00  0.00    -0.750 OA
INPUT-LIGAND-PDBQT: ATOM     12 O7   LIG A   1       3.752   4.833   0.786  1.00  0.00    -0.750 OA
INPUT-LIGAND-PDBQT: ATOM     13 O8   LIG A   1       2.623   3.315  -0.817  1.00  0.00    -0.750 OA
INPUT-LIGAND-PDBQT: ATOM     14 O9   LIG A   1       4.801   6.391  -1.210  1.00  0.00    -0.750 OA
INPUT-LIGAND-PDBQT: ATOM     15 O10  LIG A   1       1.760   8.548  -1.146  1.00  0.00    -0.750 OA
INPUT-LIGAND-PDBQT: ATOM     16 O11  LIG A   1       5.308   3.712  -1.169  1.00  0.00    -0.800 OA
INPUT-LIGAND-PDBQT: ATOM     17 O12  LIG A   1      -0.042   2.861  -0.685  1.00  0.00    -0.750 OA
INPUT-LIGAND-PDBQT: ATOM     18 O13  LIG A   1      -0.924   8.226  -1.114  1.00  0.00    -0.800 OA
INPUT-LIGAND-PDBQT: ATOM     19 O14  LIG A   1       4.350   9.136  -1.318  1.00  0.00    -0.800 OA
INPUT-LIGAND-PDBQT: ATOM     20 V6   LIG A   1       2.444   6.174   1.074  1.00  0.00    +1.500 Zn
INPUT-LIGAND-PDBQT: ATOM     21 O15  LIG A   1       2.351   6.061   2.749  1.00  0.00    -0.750 OA
INPUT-LIGAND-PDBQT: ATOM     22 V7   LIG A   1       1.225   4.439   3.319  1.00  0.00    +1.500 Zn
INPUT-LIGAND-PDBQT: ATOM     23 O16  LIG A   1       1.317   4.572   4.915  1.00  0.00    -0.800 OA
INPUT-LIGAND-PDBQT: ATOM     24 O17  LIG A   1      -0.257   5.646   2.929  1.00  0.00    -0.750 OA
INPUT-LIGAND-PDBQT: ATOM     25 V8   LIG A   1      -0.621   5.802   1.245  1.00  0.00    +1.500 Zn
INPUT-LIGAND-PDBQT: ATOM     26 O18  LIG A   1       1.154   4.495   1.004  1.00  0.00    -0.750 OA
INPUT-LIGAND-PDBQT: ATOM     27 O19  LIG A   1       2.761   3.492   2.897  1.00  0.00    -0.750 OA
INPUT-LIGAND-PDBQT: ATOM     28 V9   LIG A   1       2.973   3.104   1.140  1.00  0.00    +1.500 Zn
INPUT-LIGAND-PDBQT: ATOM     29 V10  LIG A   1      -0.052   2.539   1.286  1.00  0.00    +1.500 Zn
INPUT-LIGAND-PDBQT: ATOM     30 O20  LIG A   1       0.138   3.032   3.043  1.00  0.00    -0.750 OA
INPUT-LIGAND-PDBQT: ATOM     31 O21  LIG A   1      -1.456   4.004   1.210  1.00  0.00    -0.750 OA
INPUT-LIGAND-PDBQT: ATOM     32 O22  LIG A   1      -0.407   5.562  -0.786  1.00  0.00    -0.750 OA
INPUT-LIGAND-PDBQT: ATOM     33 O23  LIG A   1       1.586   1.847   1.146  1.00  0.00    -0.750 OA
INPUT-LIGAND-PDBQT: ATOM     34 O24  LIG A   1       4.269   2.169   1.114  1.00  0.00    -0.800 OA
INPUT-LIGAND-PDBQT: ATOM     35 O25  LIG A   1      -1.004   1.259   1.318  1.00  0.00    -0.800 OA
INPUT-LIGAND-PDBQT: ATOM     36 O26  LIG A   1       0.722   7.080   0.817  1.00  0.00    -0.750 OA
INPUT-LIGAND-PDBQT: ATOM     37 O27  LIG A   1      -1.962   6.682   1.169  1.00  0.00    -0.800 OA
INPUT-LIGAND-PDBQT: ATOM     38 O28  LIG A   1       3.387   7.533   0.685  1.00  0.00    -0.750 OA
INPUT-LIGAND-PDBQT: ENDROOT
INPUT-LIGAND-PDBQT: TORSDOF 0


    FINAL DOCKED STATE:
    ________________________


Run:   1 / 20
Time taken for this run:   0.011s

DOCKED: MODEL        1
DOCKED: USER    Run = 1
DOCKED: USER
DOCKED: USER    Estimated Free Energy of Binding    =  -0.04 kcal/mol  [=(1)+(2)+(3)-(4)]
DOCKED: USER
DOCKED: USER    (1) Final Intermolecular Energy     =  -0.04 kcal/mol
DOCKED: USER        vdW + Hbond + desolv Energy     =  +0.00 kcal/mol
DOCKED: USER        Electrostatic Energy            =  -0.04 kcal/mol
DOCKED: USER        Moving Ligand-Fixed Receptor    =  -0.04 kcal/mol
DOCKED: USER        Moving Ligand-Moving Receptor   =  +0.00 kcal/mol
DOCKED: USER    (2) Final Total Internal Energy     =  +0.00 kcal/mol
DOCKED: USER    (3) Torsional Free Energy           =  +0.00 kcal/mol
DOCKED: USER    (4) Unbound System's Energy         =  +0.00 kcal/mol
DOCKED: USER
DOCKED: USER
DOCKED: USER                              x       y       z     vdW  Elec       q    Type
DOCKED: USER                           _______ _______ _______ _____ _____    ______ ____
DOCKED: ROOT
DOCKED: ATOM      1 V1   LIG A   1       2.618 -20.550 -10.310 +0.00 +0.01    +1.500 Zn 
DOCKED: ATOM      2 V2   LIG A   1       2.009 -23.188  -8.814 +0.00 +0.01    +1.500 Zn 
DOCKED: ATOM      3 V3   LIG A   1       4.925 -22.449  -9.531 +0.00 +0.01    +1.500 Zn 
DOCKED: ATOM      4 V4   LIG A   1       4.229 -21.983 -12.533 +0.00 +0.00    +1.500 Zn 
DOCKED: ATOM      5 V5   LIG A   1       1.283 -22.718 -12.012 +0.00 +0.00    +1.500 Zn 
DOCKED: ATOM      6 O1   LIG A   1       2.343 -19.018  -9.925 +0.00 -0.00    -0.800 OA 
DOCKED: ATOM      7 O2   LIG A   1       1.847 -21.466  -8.770 +0.00 -0.00    -0.750 OA 
DOCKED: ATOM      8 O3   LIG A   1       4.373 -20.878  -9.295 +0.00 -0.01    -0.750 OA 
DOCKED: ATOM      9 O4   LIG A   1       3.739 -20.410 -11.779 +0.00 -0.00    -0.750 OA 
DOCKED: ATOM     10 O5   LIG A   1       1.190 -21.031 -11.296 +0.00 -0.00    -0.750 OA 
DOCKED: ATOM     11 O6   LIG A   1       3.162 -22.775 -10.662 +0.00 -0.00    -0.750 OA 
DOCKED: ATOM     12 O7   LIG A   1       2.625 -25.032  -9.482 +0.00 -0.00    -0.750 OA 
DOCKED: ATOM     13 O8   LIG A   1       3.794 -23.287  -8.163 +0.00 -0.01    -0.750 OA 
DOCKED: ATOM     14 O9   LIG A   1       0.599 -23.332 -10.201 +0.00 -0.00    -0.750 OA 
DOCKED: ATOM     15 O10  LIG A   1       2.518 -22.299 -13.226 +0.00 -0.00    -0.750 OA 
DOCKED: ATOM     16 O11  LIG A   1       1.162 -23.737  -7.563 +0.00 -0.01    -0.800 OA 
DOCKED: ATOM     17 O12  LIG A   1       6.374 -22.639  -8.663 +0.00 -0.01    -0.750 OA 
DOCKED: ATOM     18 O13  LIG A   1       5.040 -21.540 -13.836 +0.00 -0.00    -0.800 OA 
DOCKED: ATOM     19 O14  LIG A   1      -0.055 -22.876 -12.868 +0.00 -0.00    -0.800 OA 
DOCKED: ATOM     20 V6   LIG A   1       3.362 -24.803 -11.213 +0.00 +0.01    +1.500 Zn 
DOCKED: ATOM     21 O15  LIG A   1       3.913 -26.374 -11.448 +0.00 -0.00    -0.750 OA 
DOCKED: ATOM     22 V7   LIG A   1       5.669 -26.701 -10.433 +0.00 +0.01    +1.500 Zn 
DOCKED: ATOM     23 O16  LIG A   1       5.943 -28.234 -10.819 +0.00 -0.00    -0.800 OA 
DOCKED: ATOM     24 O17  LIG A   1       6.439 -25.786 -11.974 +0.00 -0.00    -0.750 OA 
DOCKED: ATOM     25 V8   LIG A   1       6.278 -24.064 -11.930 +0.00 +0.01    +1.500 Zn 
DOCKED: ATOM     26 O18  LIG A   1       5.124 -24.477 -10.082 +0.00 -0.00    -0.750 OA 
DOCKED: ATOM     27 O19  LIG A   1       4.548 -26.842  -8.965 +0.00 -0.00    -0.750 OA 
DOCKED: ATOM     28 V9   LIG A   1       4.058 -25.268  -8.211 +0.00 +0.01    +1.500 Zn 
DOCKED: ATOM     29 V10  LIG A   1       7.004 -24.533  -8.732 +0.00 +0.01    +1.500 Zn 
DOCKED: ATOM     30 O20  LIG A   1       7.096 -26.220  -9.448 +0.00 -0.00    -0.750 OA 
DOCKED: ATOM     31 O21  LIG A   1       7.687 -23.919 -10.543 +0.00 -0.00    -0.750 OA 
DOCKED: ATOM     32 O22  LIG A   1       5.661 -22.219 -11.262 +0.00 -0.00    -0.750 OA 
DOCKED: ATOM     33 O23  LIG A   1       5.767 -24.952  -7.517 +0.00 -0.01    -0.750 OA 
DOCKED: ATOM     34 O24  LIG A   1       3.246 -25.711  -6.908 +0.00 -0.01    -0.800 OA 
DOCKED: ATOM     35 O25  LIG A   1       8.341 -24.376  -7.876 +0.00 -0.01    -0.800 OA 
DOCKED: ATOM     36 O26  LIG A   1       4.493 -23.964 -12.581 +0.00 -0.00    -0.750 OA 
DOCKED: ATOM     37 O27  LIG A   1       7.124 -23.515 -13.179 +0.00 -0.00    -0.800 OA 
DOCKED: ATOM     38 O28  LIG A   1       1.913 -24.612 -12.080 +0.00 -0.00    -0.750 OA 
DOCKED: ENDROOT
DOCKED: TORSDOF 0
DOCKED: TER
DOCKED: ENDMDL
________________________________________________________________________________


    FINAL DOCKED STATE:
    ________________________


Run:   2 / 20
Time taken for this run:   0.011s

DOCKED: MODEL        2
DOCKED: USER    Run = 2
DOCKED: USER
DOCKED: USER    Estimated Free Energy of Binding    =  -0.04 kcal/mol  [=(1)+(2)+(3)-(4)]
DOCKED: USER
DOCKED: USER    (1) Final Intermolecular Energy     =  -0.04 kcal/mol
DOCKED: USER        vdW + Hbond + desolv Energy     =  +0.00 kcal/mol
DOCKED: USER        Electrostatic Energy            =  -0.04 kcal/mol
DOCKED: USER        Moving Ligand-Fixed Receptor    =  -0.04 kcal/mol
DOCKED: USER        Moving Ligand-Moving Receptor   =  +0.00 kcal/mol
DOCKED: USER    (2) Final Total Internal Energy     =  +0.00 kcal/mol
DOCKED: USER    (3) Torsional Free Energy           =  +0.00 kcal/mol
DOCKED: USER    (4) Unbound System's Energy         =  +0.00 kcal/mol
DOCKED: USER
DOCKED: USER
DOCKED: USER                              x       y       z     vdW  Elec       q    Type
DOCKED: USER                           _______ _______ _______ _____ _____    ______ ____
DOCKED: ROOT
DOCKED: ATOM      1 V1   LIG A   1       7.805 -22.436  12.327 +0.00 +0.00    +1.500 Zn 
DOCKED: ATOM      2 V2   LIG A   1       5.172 -23.856  11.544 +0.00 +0.01    +1.500 Zn 
DOCKED: ATOM      3 V3   LIG A   1       7.862 -25.370  11.369 +0.00 +0.01    +1.500 Zn 
DOCKED: ATOM      4 V4   LIG A   1       9.181 -23.137   9.643 +0.00 +0.01    +1.500 Zn 
DOCKED: ATOM      5 V5   LIG A   1       6.572 -21.498   9.686 +0.00 +0.01    +1.500 Zn 
DOCKED: ATOM      6 O1   LIG A   1       8.290 -21.771  13.704 +0.00 -0.00    -0.800 OA 
DOCKED: ATOM      7 O2   LIG A   1       6.009 -23.023  12.809 +0.00 -0.00    -0.750 OA 
DOCKED: ATOM      8 O3   LIG A   1       8.262 -24.406  12.687 +0.00 -0.00    -0.750 OA 
DOCKED: ATOM      9 O4   LIG A   1       9.362 -22.478  11.321 +0.00 -0.00    -0.750 OA 
DOCKED: ATOM     10 O5   LIG A   1       7.096 -21.071  11.391 +0.00 -0.00    -0.750 OA 
DOCKED: ATOM     11 O6   LIG A   1       7.092 -23.615  10.465 +0.00 -0.00    -0.750 OA 
DOCKED: ATOM     12 O7   LIG A   1       4.879 -24.768   9.725 +0.00 -0.00    -0.750 OA 
DOCKED: ATOM     13 O8   LIG A   1       5.959 -25.567  11.809 +0.00 -0.00    -0.750 OA 
DOCKED: ATOM     14 O9   LIG A   1       4.865 -22.159  10.565 +0.00 -0.00    -0.750 OA 
DOCKED: ATOM     15 O10  LIG A   1       8.231 -21.636   9.048 +0.00 -0.01    -0.750 OA 
DOCKED: ATOM     16 O11  LIG A   1       3.677 -24.083  12.088 +0.00 -0.00    -0.800 OA 
DOCKED: ATOM     17 O12  LIG A   1       8.268 -26.978  11.743 +0.00 -0.00    -0.750 OA 
DOCKED: ATOM     18 O13  LIG A   1      10.620 -22.901   8.988 +0.00 -0.01    -0.800 OA 
DOCKED: ATOM     19 O14  LIG A   1       6.038 -20.129   9.064 +0.00 -0.01    -0.800 OA 
DOCKED: ATOM     20 V6   LIG A   1       6.365 -24.351   8.625 +0.00 +0.01    +1.500 Zn 
DOCKED: ATOM     21 O15  LIG A   1       5.964 -25.315   7.307 +0.00 -0.01    -0.750 OA 
DOCKED: ATOM     22 V7   LIG A   1       6.421 -27.286   7.667 +0.00 +0.01    +1.500 Zn 
DOCKED: ATOM     23 O16  LIG A   1       5.936 -27.950   6.289 +0.00 -0.01    -0.800 OA 
DOCKED: ATOM     24 O17  LIG A   1       8.218 -26.698   7.185 +0.00 -0.01    -0.750 OA 
DOCKED: ATOM     25 V8   LIG A   1       9.055 -25.866   8.449 +0.00 +0.01    +1.500 Zn 
DOCKED: ATOM     26 O18  LIG A   1       7.133 -26.106   9.529 +0.00 -0.00    -0.750 OA 
DOCKED: ATOM     27 O19  LIG A   1       4.865 -27.243   8.672 +0.00 -0.00    -0.750 OA 
DOCKED: ATOM     28 V9   LIG A   1       5.046 -26.585  10.350 +0.00 +0.01    +1.500 Zn 
DOCKED: ATOM     29 V10  LIG A   1       7.654 -28.223  10.308 +0.00 +0.01    +1.500 Zn 
DOCKED: ATOM     30 O20  LIG A   1       7.130 -28.650   8.602 +0.00 -0.00    -0.750 OA 
DOCKED: ATOM     31 O21  LIG A   1       9.361 -27.563   9.428 +0.00 -0.00    -0.750 OA 
DOCKED: ATOM     32 O22  LIG A   1       9.348 -24.954  10.268 +0.00 -0.00    -0.750 OA 
DOCKED: ATOM     33 O23  LIG A   1       5.995 -28.085  10.946 +0.00 -0.00    -0.750 OA 
DOCKED: ATOM     34 O24  LIG A   1       3.607 -26.821  11.005 +0.00 -0.00    -0.800 OA 
DOCKED: ATOM     35 O25  LIG A   1       8.188 -29.592  10.929 +0.00 -0.00    -0.800 OA 
DOCKED: ATOM     36 O26  LIG A   1       8.267 -24.154   8.185 +0.00 -0.01    -0.750 OA 
DOCKED: ATOM     37 O27  LIG A   1      10.549 -25.639   7.906 +0.00 -0.01    -0.800 OA 
DOCKED: ATOM     38 O28  LIG A   1       5.958 -22.744   8.250 +0.00 -0.01    -0.750 OA 
DOCKED: ENDROOT
DOCKED: TORSDOF 0
DOCKED: TER
DOCKED: ENDMDL
________________________________________________________________________________


    FINAL DOCKED STATE:
    ________________________


Run:   3 / 20
Time taken for this run:   0.011s

DOCKED: MODEL        3
DOCKED: USER    Run = 3
DOCKED: USER
DOCKED: USER    Estimated Free Energy of Binding    =  -0.04 kcal/mol  [=(1)+(2)+(3)-(4)]
DOCKED: USER
DOCKED: USER    (1) Final Intermolecular Energy     =  -0.04 kcal/mol
DOCKED: USER        vdW + Hbond + desolv Energy     =  +0.00 kcal/mol
DOCKED: USER        Electrostatic Energy            =  -0.04 kcal/mol
DOCKED: USER        Moving Ligand-Fixed Receptor    =  -0.04 kcal/mol
DOCKED: USER        Moving Ligand-Moving Receptor   =  +0.00 kcal/mol
DOCKED: USER    (2) Final Total Internal Energy     =  +0.00 kcal/mol
DOCKED: USER    (3) Torsional Free Energy           =  +0.00 kcal/mol
DOCKED: USER    (4) Unbound System's Energy         =  +0.00 kcal/mol
DOCKED: USER
DOCKED: USER
DOCKED: USER                              x       y       z     vdW  Elec       q    Type
DOCKED: USER                           _______ _______ _______ _____ _____    ______ ____
DOCKED: ROOT
DOCKED: ATOM      1 V1   LIG A   1       7.241 -28.234  10.589 +0.00 +0.01    +1.500 Zn 
DOCKED: ATOM      2 V2   LIG A   1       7.358 -25.215  11.250 +0.00 +0.01    +1.500 Zn 
DOCKED: ATOM      3 V3   LIG A   1       4.627 -26.614  10.867 +0.00 +0.01    +1.500 Zn 
DOCKED: ATOM      4 V4   LIG A   1       5.449 -27.795   8.103 +0.00 +0.01    +1.500 Zn 
DOCKED: ATOM      5 V5   LIG A   1       8.214 -26.450   8.298 +0.00 +0.01    +1.500 Zn 
DOCKED: ATOM      6 O1   LIG A   1       7.769 -29.521  11.387 +0.00 -0.00    -0.800 OA 
DOCKED: ATOM      7 O2   LIG A   1       7.813 -26.798  11.779 +0.00 -0.00    -0.750 OA 
DOCKED: ATOM      8 O3   LIG A   1       5.437 -27.933  11.523 +0.00 -0.00    -0.750 OA 
DOCKED: ATOM      9 O4   LIG A   1       6.188 -28.979   9.258 +0.00 -0.00    -0.750 OA 
DOCKED: ATOM     10 O5   LIG A   1       8.583 -27.819   9.462 +0.00 -0.00    -0.750 OA 
DOCKED: ATOM     11 O6   LIG A   1       6.328 -26.330   9.635 +0.00 -0.00    -0.750 OA 
DOCKED: ATOM     12 O7   LIG A   1       6.445 -23.772  10.104 +0.00 -0.00    -0.750 OA 
DOCKED: ATOM     13 O8   LIG A   1       5.571 -25.239  11.902 +0.00 -0.00    -0.750 OA 
DOCKED: ATOM     14 O9   LIG A   1       8.747 -25.236   9.836 +0.00 -0.00    -0.750 OA 
DOCKED: ATOM     15 O10  LIG A   1       7.092 -27.404   7.293 +0.00 -0.01    -0.750 OA 
DOCKED: ATOM     16 O11  LIG A   1       8.074 -24.194  12.264 +0.00 -0.00    -0.800 OA 
DOCKED: ATOM     17 O12  LIG A   1       3.151 -26.433  11.690 +0.00 -0.00    -0.750 OA 
DOCKED: ATOM     18 O13  LIG A   1       4.750 -28.724   7.006 +0.00 -0.01    -0.800 OA 
DOCKED: ATOM     19 O14  LIG A   1       9.520 -26.319   7.390 +0.00 -0.01    -0.800 OA 
DOCKED: ATOM     20 V6   LIG A   1       5.792 -24.611   8.534 +0.00 +0.01    +1.500 Zn 
DOCKED: ATOM     21 O15  LIG A   1       4.983 -23.291   7.878 +0.00 -0.01    -0.750 OA 
DOCKED: ATOM     22 V7   LIG A   1       3.178 -22.990   8.812 +0.00 +0.01    +1.500 Zn 
DOCKED: ATOM     23 O16  LIG A   1       2.651 -21.703   8.014 +0.00 -0.01    -0.800 OA 
DOCKED: ATOM     24 O17  LIG A   1       2.606 -24.426   7.622 +0.00 -0.01    -0.750 OA 
DOCKED: ATOM     25 V8   LIG A   1       3.061 -26.010   8.151 +0.00 +0.01    +1.500 Zn 
DOCKED: ATOM     26 O18  LIG A   1       4.092 -24.894   9.766 +0.00 -0.00    -0.750 OA 
DOCKED: ATOM     27 O19  LIG A   1       4.231 -22.246  10.143 +0.00 -0.00    -0.750 OA 
DOCKED: ATOM     28 V9   LIG A   1       4.970 -23.430  11.298 +0.00 +0.01    +1.500 Zn 
DOCKED: ATOM     29 V10  LIG A   1       2.205 -24.774  11.103 +0.00 +0.01    +1.500 Zn 
DOCKED: ATOM     30 O20  LIG A   1       1.837 -23.405   9.939 +0.00 -0.00    -0.750 OA 
DOCKED: ATOM     31 O21  LIG A   1       1.672 -25.989   9.565 +0.00 -0.00    -0.750 OA 
DOCKED: ATOM     32 O22  LIG A   1       3.974 -27.452   9.297 +0.00 -0.00    -0.750 OA 
DOCKED: ATOM     33 O23  LIG A   1       3.328 -23.820  12.108 +0.00 -0.00    -0.750 OA 
DOCKED: ATOM     34 O24  LIG A   1       5.669 -22.500  12.395 +0.00 -0.00    -0.800 OA 
DOCKED: ATOM     35 O25  LIG A   1       0.900 -24.905  12.011 +0.00 -0.00    -0.800 OA 
DOCKED: ATOM     36 O26  LIG A   1       4.848 -25.986   7.499 +0.00 -0.01    -0.750 OA 
DOCKED: ATOM     37 O27  LIG A   1       2.345 -27.029   7.138 +0.00 -0.00    -0.800 OA 
DOCKED: ATOM     38 O28  LIG A   1       7.268 -24.792   7.712 +0.00 -0.01    -0.750 OA 
DOCKED: ENDROOT
DOCKED: TORSDOF 0
DOCKED: TER
DOCKED: ENDMDL
________________________________________________________________________________


    FINAL DOCKED STATE:
    ________________________


Run:   4 / 20
Time taken for this run:   0.011s

DOCKED: MODEL        4
DOCKED: USER    Run = 4
DOCKED: USER
DOCKED: USER    Estimated Free Energy of Binding    =  -0.04 kcal/mol  [=(1)+(2)+(3)-(4)]
DOCKED: USER
DOCKED: USER    (1) Final Intermolecular Energy     =  -0.04 kcal/mol
DOCKED: USER        vdW + Hbond + desolv Energy     =  +0.00 kcal/mol
DOCKED: USER        Electrostatic Energy            =  -0.04 kcal/mol
DOCKED: USER        Moving Ligand-Fixed Receptor    =  -0.04 kcal/mol
DOCKED: USER        Moving Ligand-Moving Receptor   =  +0.00 kcal/mol
DOCKED: USER    (2) Final Total Internal Energy     =  +0.00 kcal/mol
DOCKED: USER    (3) Torsional Free Energy           =  +0.00 kcal/mol
DOCKED: USER    (4) Unbound System's Energy         =  +0.00 kcal/mol
DOCKED: USER
DOCKED: USER
DOCKED: USER                              x       y       z     vdW  Elec       q    Type
DOCKED: USER                           _______ _______ _______ _____ _____    ______ ____
DOCKED: ROOT
DOCKED: ATOM      1 V1   LIG A   1       5.633 -19.757  11.807 +0.00 +0.01    +1.500 Zn 
DOCKED: ATOM      2 V2   LIG A   1       4.264 -22.433  12.531 +0.00 +0.00    +1.500 Zn 
DOCKED: ATOM      3 V3   LIG A   1       7.331 -22.311  12.158 +0.00 +0.01    +1.500 Zn 
DOCKED: ATOM      4 V4   LIG A   1       7.089 -20.967   9.357 +0.00 +0.01    +1.500 Zn 
DOCKED: ATOM      5 V5   LIG A   1       4.014 -21.030   9.541 +0.00 +0.01    +1.500 Zn 
DOCKED: ATOM      6 O1   LIG A   1       5.687 -18.346  12.569 +0.00 -0.00    -0.800 OA 
DOCKED: ATOM      7 O2   LIG A   1       4.508 -20.792  13.018 +0.00 -0.00    -0.750 OA 
DOCKED: ATOM      8 O3   LIG A   1       7.143 -20.758  12.774 +0.00 -0.00    -0.750 OA 
DOCKED: ATOM      9 O4   LIG A   1       6.906 -19.553  10.475 +0.00 -0.00    -0.750 OA 
DOCKED: ATOM     10 O5   LIG A   1       4.245 -19.602  10.669 +0.00 -0.00    -0.750 OA 
DOCKED: ATOM     11 O6   LIG A   1       5.672 -21.891  10.907 +0.00 -0.00    -0.750 OA 
DOCKED: ATOM     12 O7   LIG A   1       4.496 -24.154  11.429 +0.00 -0.00    -0.750 OA 
DOCKED: ATOM     13 O8   LIG A   1       5.895 -23.140  13.208 +0.00 -0.00    -0.750 OA 
DOCKED: ATOM     14 O9   LIG A   1       3.016 -21.872  11.096 +0.00 -0.00    -0.750 OA 
DOCKED: ATOM     15 O10  LIG A   1       5.437 -20.658   8.532 +0.00 -0.01    -0.750 OA 
DOCKED: ATOM     16 O11  LIG A   1       3.182 -23.036  13.556 +0.00 -0.00    -0.800 OA 
DOCKED: ATOM     17 O12  LIG A   1       8.593 -23.070  13.006 +0.00 -0.00    -0.750 OA 
DOCKED: ATOM     18 O13  LIG A   1       8.117 -20.442   8.251 +0.00 -0.01    -0.800 OA 
DOCKED: ATOM     19 O14  LIG A   1       2.777 -20.628   8.616 +0.00 -0.01    -0.800 OA 
DOCKED: ATOM     20 V6   LIG A   1       5.447 -23.706   9.852 +0.00 +0.01    +1.500 Zn 
DOCKED: ATOM     21 O15  LIG A   1       5.634 -25.259   9.236 +0.00 -0.00    -0.750 OA 
DOCKED: ATOM     22 V7   LIG A   1       7.145 -26.261  10.204 +0.00 +0.01    +1.500 Zn 
DOCKED: ATOM     23 O16  LIG A   1       7.090 -27.671   9.441 +0.00 -0.00    -0.800 OA 
DOCKED: ATOM     24 O17  LIG A   1       8.269 -25.225   8.992 +0.00 -0.01    -0.750 OA 
DOCKED: ATOM     25 V8   LIG A   1       8.514 -23.583   9.479 +0.00 +0.01    +1.500 Zn 
DOCKED: ATOM     26 O18  LIG A   1       7.105 -24.126  11.103 +0.00 -0.00    -0.750 OA 
DOCKED: ATOM     27 O19  LIG A   1       5.872 -26.464  11.535 +0.00 -0.00    -0.750 OA 
DOCKED: ATOM     28 V9   LIG A   1       5.689 -25.050  12.653 +0.00 +0.00    +1.500 Zn 
DOCKED: ATOM     29 V10  LIG A   1       8.763 -24.987  12.469 +0.00 +0.00    +1.500 Zn 
DOCKED: ATOM     30 O20  LIG A   1       8.531 -26.414  11.341 +0.00 -0.00    -0.750 OA 
DOCKED: ATOM     31 O21  LIG A   1       9.762 -24.145  10.914 +0.00 -0.00    -0.750 OA 
DOCKED: ATOM     32 O22  LIG A   1       8.281 -21.863  10.581 +0.00 -0.00    -0.750 OA 
DOCKED: ATOM     33 O23  LIG A   1       7.340 -25.359  13.478 +0.00 -0.00    -0.750 OA 
DOCKED: ATOM     34 O24  LIG A   1       4.661 -25.575  13.759 +0.00 -0.00    -0.800 OA 
DOCKED: ATOM     35 O25  LIG A   1      10.000 -25.389  13.394 +0.00 -0.00    -0.800 OA 
DOCKED: ATOM     36 O26  LIG A   1       6.883 -22.876   8.802 +0.00 -0.01    -0.750 OA 
DOCKED: ATOM     37 O27  LIG A   1       9.595 -22.981   8.455 +0.00 -0.01    -0.800 OA 
DOCKED: ATOM     38 O28  LIG A   1       4.185 -22.947   9.005 +0.00 -0.01    -0.750 OA 
DOCKED: ENDROOT
DOCKED: TORSDOF 0
DOCKED: TER
DOCKED: ENDMDL
________________________________________________________________________________


    FINAL DOCKED STATE:
    ________________________


Run:   5 / 20
Time taken for this run:   0.011s

DOCKED: MODEL        5
DOCKED: USER    Run = 5
DOCKED: USER
DOCKED: USER    Estimated Free Energy of Binding    =  -0.04 kcal/mol  [=(1)+(2)+(3)-(4)]
DOCKED: USER
DOCKED: USER    (1) Final Intermolecular Energy     =  -0.04 kcal/mol
DOCKED: USER        vdW + Hbond + desolv Energy     =  +0.00 kcal/mol
DOCKED: USER        Electrostatic Energy            =  -0.04 kcal/mol
DOCKED: USER        Moving Ligand-Fixed Receptor    =  -0.04 kcal/mol
DOCKED: USER        Moving Ligand-Moving Receptor   =  +0.00 kcal/mol
DOCKED: USER    (2) Final Total Internal Energy     =  +0.00 kcal/mol
DOCKED: USER    (3) Torsional Free Energy           =  +0.00 kcal/mol
DOCKED: USER    (4) Unbound System's Energy         =  +0.00 kcal/mol
DOCKED: USER
DOCKED: USER
DOCKED: USER                              x       y       z     vdW  Elec       q    Type
DOCKED: USER                           _______ _______ _______ _____ _____    ______ ____
DOCKED: ROOT
DOCKED: ATOM      1 V1   LIG A   1       6.769 -24.247  11.501 +0.00 +0.01    +1.500 Zn 
DOCKED: ATOM      2 V2   LIG A   1       7.788 -27.098  10.871 +0.00 +0.01    +1.500 Zn 
DOCKED: ATOM      3 V3   LIG A   1       9.802 -24.814  11.405 +0.00 +0.01    +1.500 Zn 
DOCKED: ATOM      4 V4   LIG A   1       8.491 -22.955   9.276 +0.00 +0.01    +1.500 Zn 
DOCKED: ATOM      5 V5   LIG A   1       6.417 -25.127   8.589 +0.00 +0.01    +1.500 Zn 
DOCKED: ATOM      6 O1   LIG A   1       5.842 -23.683  12.683 +0.00 -0.00    -0.800 OA 
DOCKED: ATOM      7 O2   LIG A   1       6.810 -26.148  11.935 +0.00 -0.00    -0.750 OA 
DOCKED: ATOM      8 O3   LIG A   1       8.596 -24.262  12.439 +0.00 -0.00    -0.750 OA 
DOCKED: ATOM      9 O4   LIG A   1       7.421 -22.700  10.715 +0.00 -0.00    -0.750 OA 
DOCKED: ATOM     10 O5   LIG A   1       5.624 -24.591  10.154 +0.00 -0.00    -0.750 OA 
DOCKED: ATOM     11 O6   LIG A   1       8.271 -25.130   9.975 +0.00 -0.00    -0.750 OA 
DOCKED: ATOM     12 O7   LIG A   1       9.114 -27.514   9.356 +0.00 -0.00    -0.750 OA 
DOCKED: ATOM     13 O8   LIG A   1       9.469 -26.729  11.681 +0.00 -0.00    -0.750 OA 
DOCKED: ATOM     14 O9   LIG A   1       6.428 -26.974   9.433 +0.00 -0.00    -0.750 OA 
DOCKED: ATOM     15 O10  LIG A   1       7.071 -23.517   8.192 +0.00 -0.01    -0.750 OA 
DOCKED: ATOM     16 O11  LIG A   1       7.536 -28.628  11.297 +0.00 -0.00    -0.800 OA 
DOCKED: ATOM     17 O12  LIG A   1      11.277 -24.797  12.252 +0.00 -0.00    -0.750 OA 
DOCKED: ATOM     18 O13  LIG A   1       8.757 -21.474   8.737 +0.00 -0.01    -0.800 OA 
DOCKED: ATOM     19 O14  LIG A   1       5.212 -25.312   7.560 +0.00 -0.01    -0.800 OA 
DOCKED: ATOM     20 V6   LIG A   1       9.351 -25.928   8.345 +0.00 +0.01    +1.500 Zn 
DOCKED: ATOM     21 O15  LIG A   1      10.556 -26.481   7.312 +0.00 -0.01    -0.750 OA 
DOCKED: ATOM     22 V7   LIG A   1      12.385 -26.495   8.250 +0.00 +0.01    +1.500 Zn 
DOCKED: ATOM     23 O16  LIG A   1      13.310 -27.060   7.068 +0.00 -0.01    -0.800 OA 
DOCKED: ATOM     24 O17  LIG A   1      12.343 -24.594   7.815 +0.00 -0.01    -0.750 OA 
DOCKED: ATOM     25 V8   LIG A   1      11.365 -23.643   8.880 +0.00 +0.01    +1.500 Zn 
DOCKED: ATOM     26 O18  LIG A   1      10.881 -25.613   9.776 +0.00 -0.00    -0.750 OA 
DOCKED: ATOM     27 O19  LIG A   1      11.732 -28.042   9.035 +0.00 -0.00    -0.750 OA 
DOCKED: ATOM     28 V9   LIG A   1      10.662 -27.787  10.474 +0.00 +0.01    +1.500 Zn 
DOCKED: ATOM     29 V10  LIG A   1      12.736 -25.615  11.161 +0.00 +0.00    +1.500 Zn 
DOCKED: ATOM     30 O20  LIG A   1      13.528 -26.151   9.596 +0.00 -0.00    -0.750 OA 
DOCKED: ATOM     31 O21  LIG A   1      12.725 -23.768  10.317 +0.00 -0.00    -0.750 OA 
DOCKED: ATOM     32 O22  LIG A   1      10.039 -23.228  10.395 +0.00 -0.00    -0.750 OA 
DOCKED: ATOM     33 O23  LIG A   1      12.081 -27.226  11.558 +0.00 -0.00    -0.750 OA 
DOCKED: ATOM     34 O24  LIG A   1      10.396 -29.268  11.014 +0.00 -0.00    -0.800 OA 
DOCKED: ATOM     35 O25  LIG A   1      13.941 -25.430  12.191 +0.00 -0.00    -0.800 OA 
DOCKED: ATOM     36 O26  LIG A   1       9.684 -24.013   8.070 +0.00 -0.01    -0.750 OA 
DOCKED: ATOM     37 O27  LIG A   1      11.617 -22.116   8.454 +0.00 -0.01    -0.800 OA 
DOCKED: ATOM     38 O28  LIG A   1       7.877 -25.946   7.499 +0.00 -0.01    -0.750 OA 
DOCKED: ENDROOT
DOCKED: TORSDOF 0
DOCKED: TER
DOCKED: ENDMDL
________________________________________________________________________________


    FINAL DOCKED STATE:
    ________________________


Run:   6 / 20
Time taken for this run:   0.011s

DOCKED: MODEL        6
DOCKED: USER    Run = 6
DOCKED: USER
DOCKED: USER    Estimated Free Energy of Binding    =  -0.04 kcal/mol  [=(1)+(2)+(3)-(4)]
DOCKED: USER
DOCKED: USER    (1) Final Intermolecular Energy     =  -0.04 kcal/mol
DOCKED: USER        vdW + Hbond + desolv Energy     =  +0.00 kcal/mol
DOCKED: USER        Electrostatic Energy            =  -0.04 kcal/mol
DOCKED: USER        Moving Ligand-Fixed Receptor    =  -0.04 kcal/mol
DOCKED: USER        Moving Ligand-Moving Receptor   =  +0.00 kcal/mol
DOCKED: USER    (2) Final Total Internal Energy     =  +0.00 kcal/mol
DOCKED: USER    (3) Torsional Free Energy           =  +0.00 kcal/mol
DOCKED: USER    (4) Unbound System's Energy         =  +0.00 kcal/mol
DOCKED: USER
DOCKED: USER
DOCKED: USER                              x       y       z     vdW  Elec       q    Type
DOCKED: USER                           _______ _______ _______ _____ _____    ______ ____
DOCKED: ROOT
DOCKED: ATOM      1 V1   LIG A   1       3.025 -20.002 -11.366 +0.00 +0.01    +1.500 Zn 
DOCKED: ATOM      2 V2   LIG A   1       5.189 -20.163  -9.162 +0.00 +0.01    +1.500 Zn 
DOCKED: ATOM      3 V3   LIG A   1       5.427 -21.913 -11.701 +0.00 +0.01    +1.500 Zn 
DOCKED: ATOM      4 V4   LIG A   1       2.551 -23.062 -11.363 +0.00 +0.01    +1.500 Zn 
DOCKED: ATOM      5 V5   LIG A   1       2.143 -21.411  -8.794 +0.00 +0.01    +1.500 Zn 
DOCKED: ATOM      6 O1   LIG A   1       2.518 -18.783 -12.276 +0.00 -0.00    -0.800 OA 
DOCKED: ATOM      7 O2   LIG A   1       4.368 -19.114 -10.266 +0.00 -0.00    -0.750 OA 
DOCKED: ATOM      8 O3   LIG A   1       4.675 -20.600 -12.434 +0.00 -0.00    -0.750 OA 
DOCKED: ATOM      9 O4   LIG A   1       2.233 -21.472 -12.171 +0.00 -0.00    -0.750 OA 
DOCKED: ATOM     10 O5   LIG A   1       1.899 -20.016  -9.961 +0.00 -0.00    -0.750 OA 
DOCKED: ATOM     11 O6   LIG A   1       3.983 -21.733 -10.160 +0.00 -0.00    -0.750 OA 
DOCKED: ATOM     12 O7   LIG A   1       5.749 -21.922  -8.257 +0.00 -0.01    -0.750 OA 
DOCKED: ATOM     13 O8   LIG A   1       6.456 -20.874 -10.391 +0.00 -0.00    -0.750 OA 
DOCKED: ATOM     14 O9   LIG A   1       3.597 -20.248  -7.984 +0.00 -0.01    -0.750 OA 
DOCKED: ATOM     15 O10  LIG A   1       1.470 -22.645  -9.891 +0.00 -0.00    -0.750 OA 
DOCKED: ATOM     16 O11  LIG A   1       6.103 -19.206  -8.250 +0.00 -0.01    -0.800 OA 
DOCKED: ATOM     17 O12  LIG A   1       6.777 -22.345 -12.640 +0.00 -0.00    -0.750 OA 
DOCKED: ATOM     18 O13  LIG A   1       1.630 -24.088 -12.172 +0.00 -0.00    -0.800 OA 
DOCKED: ATOM     19 O14  LIG A   1       1.007 -21.225  -7.688 +0.00 -0.01    -0.800 OA 
DOCKED: ATOM     20 V6   LIG A   1       4.557 -23.275  -8.838 +0.00 +0.01    +1.500 Zn 
DOCKED: ATOM     21 O15  LIG A   1       5.309 -24.588  -8.104 +0.00 -0.01    -0.750 OA 
DOCKED: ATOM     22 V7   LIG A   1       6.960 -25.186  -9.173 +0.00 +0.01    +1.500 Zn 
DOCKED: ATOM     23 O16  LIG A   1       7.466 -26.405  -8.261 +0.00 -0.01    -0.800 OA 
DOCKED: ATOM     24 O17  LIG A   1       5.616 -26.075 -10.272 +0.00 -0.00    -0.750 OA 
DOCKED: ATOM     25 V8   LIG A   1       4.795 -25.026 -11.376 +0.00 +0.01    +1.500 Zn 
DOCKED: ATOM     26 O18  LIG A   1       6.001 -23.455 -10.378 +0.00 -0.00    -0.750 OA 
DOCKED: ATOM     27 O19  LIG A   1       7.751 -23.716  -8.367 +0.00 -0.01    -0.750 OA 
DOCKED: ATOM     28 V9   LIG A   1       7.433 -22.126  -9.176 +0.00 +0.01    +1.500 Zn 
DOCKED: ATOM     29 V10  LIG A   1       7.841 -23.778 -11.744 +0.00 +0.01    +1.500 Zn 
DOCKED: ATOM     30 O20  LIG A   1       8.085 -25.172 -10.577 +0.00 -0.00    -0.750 OA 
DOCKED: ATOM     31 O21  LIG A   1       6.387 -24.941 -12.554 +0.00 -0.00    -0.750 OA 
DOCKED: ATOM     32 O22  LIG A   1       4.235 -23.267 -12.282 +0.00 -0.00    -0.750 OA 
DOCKED: ATOM     33 O23  LIG A   1       8.514 -22.543 -10.646 +0.00 -0.00    -0.750 OA 
DOCKED: ATOM     34 O24  LIG A   1       8.354 -21.101  -8.367 +0.00 -0.01    -0.800 OA 
DOCKED: ATOM     35 O25  LIG A   1       8.977 -23.963 -12.849 +0.00 -0.00    -0.800 OA 
DOCKED: ATOM     36 O26  LIG A   1       3.528 -24.314 -10.148 +0.00 -0.00    -0.750 OA 
DOCKED: ATOM     37 O27  LIG A   1       3.882 -25.981 -12.288 +0.00 -0.00    -0.800 OA 
DOCKED: ATOM     38 O28  LIG A   1       3.208 -22.843  -7.899 +0.00 -0.01    -0.750 OA 
DOCKED: ENDROOT
DOCKED: TORSDOF 0
DOCKED: TER
DOCKED: ENDMDL
________________________________________________________________________________


    FINAL DOCKED STATE:
    ________________________


Run:   7 / 20
Time taken for this run:   0.011s

DOCKED: MODEL        7
DOCKED: USER    Run = 7
DOCKED: USER
DOCKED: USER    Estimated Free Energy of Binding    =  -0.04 kcal/mol  [=(1)+(2)+(3)-(4)]
DOCKED: USER
DOCKED: USER    (1) Final Intermolecular Energy     =  -0.04 kcal/mol
DOCKED: USER        vdW + Hbond + desolv Energy     =  +0.00 kcal/mol
DOCKED: USER        Electrostatic Energy            =  -0.04 kcal/mol
DOCKED: USER        Moving Ligand-Fixed Receptor    =  -0.04 kcal/mol
DOCKED: USER        Moving Ligand-Moving Receptor   =  +0.00 kcal/mol
DOCKED: USER    (2) Final Total Internal Energy     =  +0.00 kcal/mol
DOCKED: USER    (3) Torsional Free Energy           =  +0.00 kcal/mol
DOCKED: USER    (4) Unbound System's Energy         =  +0.00 kcal/mol
DOCKED: USER
DOCKED: USER
DOCKED: USER                              x       y       z     vdW  Elec       q    Type
DOCKED: USER                           _______ _______ _______ _____ _____    ______ ____
DOCKED: ROOT
DOCKED: ATOM      1 V1   LIG A   1       4.932 -28.348   6.749 +0.00 +0.01    +1.500 Zn 
DOCKED: ATOM      2 V2   LIG A   1       3.150 -25.904   7.393 +0.00 +0.01    +1.500 Zn 
DOCKED: ATOM      3 V3   LIG A   1       6.133 -25.905   8.205 +0.00 +0.01    +1.500 Zn 
DOCKED: ATOM      4 V4   LIG A   1       5.888 -28.638   9.680 +0.00 +0.01    +1.500 Zn 
DOCKED: ATOM      5 V5   LIG A   1       2.890 -28.796   8.987 +0.00 +0.01    +1.500 Zn 
DOCKED: ATOM      6 O1   LIG A   1       5.329 -29.042   5.359 +0.00 -0.01    -0.800 OA 
DOCKED: ATOM      7 O2   LIG A   1       3.751 -26.925   6.132 +0.00 -0.01    -0.750 OA 
DOCKED: ATOM      8 O3   LIG A   1       6.307 -26.824   6.808 +0.00 -0.01    -0.750 OA 
DOCKED: ATOM      9 O4   LIG A   1       6.087 -29.153   7.955 +0.00 -0.00    -0.750 OA 
DOCKED: ATOM     10 O5   LIG A   1       3.498 -29.274   7.324 +0.00 -0.00    -0.750 OA 
DOCKED: ATOM     11 O6   LIG A   1       4.474 -27.138   8.671 +0.00 -0.00    -0.750 OA 
DOCKED: ATOM     12 O7   LIG A   1       2.941 -25.126   9.285 +0.00 -0.00    -0.750 OA 
DOCKED: ATOM     13 O8   LIG A   1       4.672 -24.773   7.545 +0.00 -0.01    -0.750 OA 
DOCKED: ATOM     14 O9   LIG A   1       1.902 -27.317   8.007 +0.00 -0.00    -0.750 OA 
DOCKED: ATOM     15 O10  LIG A   1       4.254 -29.535   9.865 +0.00 -0.00    -0.750 OA 
DOCKED: ATOM     16 O11  LIG A   1       2.076 -24.934   6.693 +0.00 -0.01    -0.800 OA 
DOCKED: ATOM     17 O12  LIG A   1       7.301 -24.670   8.178 +0.00 -0.01    -0.750 OA 
DOCKED: ATOM     18 O13  LIG A   1       6.886 -29.598  10.478 +0.00 -0.00    -0.800 OA 
DOCKED: ATOM     19 O14  LIG A   1       1.670 -29.783   9.279 +0.00 -0.00    -0.800 OA 
DOCKED: ATOM     20 V6   LIG A   1       3.805 -26.304  10.492 +0.00 +0.01    +1.500 Zn 
DOCKED: ATOM     21 O15  LIG A   1       3.630 -25.385  11.889 +0.00 -0.00    -0.750 OA 
DOCKED: ATOM     22 V7   LIG A   1       5.006 -23.860  11.947 +0.00 +0.01    +1.500 Zn 
DOCKED: ATOM     23 O16  LIG A   1       4.608 -23.167  13.338 +0.00 -0.00    -0.800 OA 
DOCKED: ATOM     24 O17  LIG A   1       6.187 -25.284  12.565 +0.00 -0.00    -0.750 OA 
DOCKED: ATOM     25 V8   LIG A   1       6.788 -26.305  11.304 +0.00 +0.01    +1.500 Zn 
DOCKED: ATOM     26 O18  LIG A   1       5.463 -25.071  10.025 +0.00 -0.00    -0.750 OA 
DOCKED: ATOM     27 O19  LIG A   1       3.851 -23.056  10.742 +0.00 -0.00    -0.750 OA 
DOCKED: ATOM     28 V9   LIG A   1       4.050 -23.571   9.016 +0.00 +0.01    +1.500 Zn 
DOCKED: ATOM     29 V10  LIG A   1       7.048 -23.413   9.710 +0.00 +0.01    +1.500 Zn 
DOCKED: ATOM     30 O20  LIG A   1       6.439 -22.935  11.373 +0.00 -0.00    -0.750 OA 
DOCKED: ATOM     31 O21  LIG A   1       8.036 -24.892  10.690 +0.00 -0.00    -0.750 OA 
DOCKED: ATOM     32 O22  LIG A   1       6.997 -27.083   9.412 +0.00 -0.00    -0.750 OA 
DOCKED: ATOM     33 O23  LIG A   1       5.683 -22.674   8.832 +0.00 -0.01    -0.750 OA 
DOCKED: ATOM     34 O24  LIG A   1       3.052 -22.612   8.219 +0.00 -0.01    -0.800 OA 
DOCKED: ATOM     35 O25  LIG A   1       8.267 -22.426   9.418 +0.00 -0.01    -0.800 OA 
DOCKED: ATOM     36 O26  LIG A   1       5.266 -27.436  11.152 +0.00 -0.00    -0.750 OA 
DOCKED: ATOM     37 O27  LIG A   1       7.861 -27.274  12.003 +0.00 -0.00    -0.800 OA 
DOCKED: ATOM     38 O28  LIG A   1       2.637 -27.538  10.518 +0.00 -0.00    -0.750 OA 
DOCKED: ENDROOT
DOCKED: TORSDOF 0
DOCKED: TER
DOCKED: ENDMDL
________________________________________________________________________________


    FINAL DOCKED STATE:
    ________________________


Run:   8 / 20
Time taken for this run:   0.011s

DOCKED: MODEL        8
DOCKED: USER    Run = 8
DOCKED: USER
DOCKED: USER    Estimated Free Energy of Binding    =  -0.04 kcal/mol  [=(1)+(2)+(3)-(4)]
DOCKED: USER
DOCKED: USER    (1) Final Intermolecular Energy     =  -0.04 kcal/mol
DOCKED: USER        vdW + Hbond + desolv Energy     =  +0.00 kcal/mol
DOCKED: USER        Electrostatic Energy            =  -0.04 kcal/mol
DOCKED: USER        Moving Ligand-Fixed Receptor    =  -0.04 kcal/mol
DOCKED: USER        Moving Ligand-Moving Receptor   =  +0.00 kcal/mol
DOCKED: USER    (2) Final Total Internal Energy     =  +0.00 kcal/mol
DOCKED: USER    (3) Torsional Free Energy           =  +0.00 kcal/mol
DOCKED: USER    (4) Unbound System's Energy         =  +0.00 kcal/mol
DOCKED: USER
DOCKED: USER
DOCKED: USER                              x       y       z     vdW  Elec       q    Type
DOCKED: USER                           _______ _______ _______ _____ _____    ______ ____
DOCKED: ROOT
DOCKED: ATOM      1 V1   LIG A   1       4.583 -21.305   9.620 +0.00 +0.01    +1.500 Zn 
DOCKED: ATOM      2 V2   LIG A   1       6.226 -22.795  11.775 +0.00 +0.01    +1.500 Zn 
DOCKED: ATOM      3 V3   LIG A   1       6.385 -23.681   8.816 +0.00 +0.01    +1.500 Zn 
DOCKED: ATOM      4 V4   LIG A   1       3.288 -23.911   8.561 +0.00 +0.01    +1.500 Zn 
DOCKED: ATOM      5 V5   LIG A   1       2.936 -23.070  11.504 +0.00 +0.01    +1.500 Zn 
DOCKED: ATOM      6 O1   LIG A   1       4.590 -19.774   9.143 +0.00 -0.01    -0.800 OA 
DOCKED: ATOM      7 O2   LIG A   1       5.920 -21.260  11.039 +0.00 -0.00    -0.750 OA 
DOCKED: ATOM      8 O3   LIG A   1       6.156 -22.041   8.522 +0.00 -0.01    -0.750 OA 
DOCKED: ATOM      9 O4   LIG A   1       3.560 -22.136   8.317 +0.00 -0.01    -0.750 OA 
DOCKED: ATOM     10 O5   LIG A   1       3.283 -21.386  10.862 +0.00 -0.00    -0.750 OA 
DOCKED: ATOM     11 O6   LIG A   1       4.814 -23.528  10.231 +0.00 -0.00    -0.750 OA 
DOCKED: ATOM     12 O7   LIG A   1       6.122 -24.828  12.069 +0.00 -0.00    -0.750 OA 
DOCKED: ATOM     13 O8   LIG A   1       7.431 -23.465  10.463 +0.00 -0.00    -0.750 OA 
DOCKED: ATOM     14 O9   LIG A   1       4.501 -22.725  12.751 +0.00 -0.00    -0.750 OA 
DOCKED: ATOM     15 O10  LIG A   1       2.139 -23.638  10.014 +0.00 -0.00    -0.750 OA 
DOCKED: ATOM     16 O11  LIG A   1       7.206 -22.497  13.014 +0.00 -0.00    -0.800 OA 
DOCKED: ATOM     17 O12  LIG A   1       7.697 -24.211   7.875 +0.00 -0.01    -0.750 OA 
DOCKED: ATOM     18 O13  LIG A   1       2.265 -24.300   7.396 +0.00 -0.01    -0.800 OA 
DOCKED: ATOM     19 O14  LIG A   1       1.730 -22.878  12.532 +0.00 -0.00    -0.800 OA 
DOCKED: ATOM     20 V6   LIG A   1       4.714 -25.495  10.990 +0.00 +0.01    +1.500 Zn 
DOCKED: ATOM     21 O15  LIG A   1       4.943 -27.135  11.285 +0.00 -0.00    -0.750 OA 
DOCKED: ATOM     22 V7   LIG A   1       6.516 -27.871  10.186 +0.00 +0.01    +1.500 Zn 
DOCKED: ATOM     23 O16  LIG A   1       6.508 -29.402  10.664 +0.00 -0.00    -0.800 OA 
DOCKED: ATOM     24 O17  LIG A   1       5.179 -27.916   8.767 +0.00 -0.00    -0.750 OA 
DOCKED: ATOM     25 V8   LIG A   1       4.872 -26.381   8.031 +0.00 +0.01    +1.500 Zn 
DOCKED: ATOM     26 O18  LIG A   1       6.284 -25.648   9.576 +0.00 -0.00    -0.750 OA 
DOCKED: ATOM     27 O19  LIG A   1       7.539 -27.040  11.489 +0.00 -0.00    -0.750 OA 
DOCKED: ATOM     28 V9   LIG A   1       7.811 -25.265  11.245 +0.00 +0.01    +1.500 Zn 
DOCKED: ATOM     29 V10  LIG A   1       8.162 -26.106   8.302 +0.00 +0.01    +1.500 Zn 
DOCKED: ATOM     30 O20  LIG A   1       7.816 -27.789   8.945 +0.00 -0.00    -0.750 OA 
DOCKED: ATOM     31 O21  LIG A   1       6.597 -26.451   7.056 +0.00 -0.01    -0.750 OA 
DOCKED: ATOM     32 O22  LIG A   1       4.977 -24.348   7.738 +0.00 -0.01    -0.750 OA 
DOCKED: ATOM     33 O23  LIG A   1       8.960 -25.538   9.793 +0.00 -0.00    -0.750 OA 
DOCKED: ATOM     34 O24  LIG A   1       8.833 -24.877  12.410 +0.00 -0.00    -0.800 OA 
DOCKED: ATOM     35 O25  LIG A   1       9.368 -26.298   7.275 +0.00 -0.01    -0.800 OA 
DOCKED: ATOM     36 O26  LIG A   1       3.668 -25.711   9.343 +0.00 -0.00    -0.750 OA 
DOCKED: ATOM     37 O27  LIG A   1       3.894 -26.678   6.794 +0.00 -0.01    -0.800 OA 
DOCKED: ATOM     38 O28  LIG A   1       3.402 -24.965  11.931 +0.00 -0.00    -0.750 OA 
DOCKED: ENDROOT
DOCKED: TORSDOF 0
DOCKED: TER
DOCKED: ENDMDL
________________________________________________________________________________


    FINAL DOCKED STATE:
    ________________________


Run:   9 / 20
Time taken for this run:   0.011s

DOCKED: MODEL        9
DOCKED: USER    Run = 9
DOCKED: USER
DOCKED: USER    Estimated Free Energy of Binding    =  -0.03 kcal/mol  [=(1)+(2)+(3)-(4)]
DOCKED: USER
DOCKED: USER    (1) Final Intermolecular Energy     =  -0.03 kcal/mol
DOCKED: USER        vdW + Hbond + desolv Energy     =  +0.00 kcal/mol
DOCKED: USER        Electrostatic Energy            =  -0.04 kcal/mol
DOCKED: USER        Moving Ligand-Fixed Receptor    =  -0.03 kcal/mol
DOCKED: USER        Moving Ligand-Moving Receptor   =  +0.00 kcal/mol
DOCKED: USER    (2) Final Total Internal Energy     =  +0.00 kcal/mol
DOCKED: USER    (3) Torsional Free Energy           =  +0.00 kcal/mol
DOCKED: USER    (4) Unbound System's Energy         =  +0.00 kcal/mol
DOCKED: USER
DOCKED: USER
DOCKED: USER                              x       y       z     vdW  Elec       q    Type
DOCKED: USER                           _______ _______ _______ _____ _____    ______ ____
DOCKED: ROOT
DOCKED: ATOM      1 V1   LIG A   1       2.757 -25.333  10.725 +0.00 +0.01    +1.500 Zn 
DOCKED: ATOM      2 V2   LIG A   1       0.349 -23.452  10.248 +0.00 +0.01    +1.500 Zn 
DOCKED: ATOM      3 V3   LIG A   1       0.145 -26.450   9.517 +0.00 +0.01    +1.500 Zn 
DOCKED: ATOM      4 V4   LIG A   1       2.748 -26.366   7.806 +0.00 +0.01    +1.500 Zn 
DOCKED: ATOM      5 V5   LIG A   1       3.100 -23.365   8.404 +0.00 +0.01    +1.500 Zn 
DOCKED: ATOM      6 O1   LIG A   1       3.551 -25.731  12.061 +0.00 -0.00    -0.800 OA 
DOCKED: ATOM      7 O2   LIG A   1       1.448 -24.072  11.432 +0.00 -0.00    -0.750 OA 
DOCKED: ATOM      8 O3   LIG A   1       1.173 -26.635  10.834 +0.00 -0.00    -0.750 OA 
DOCKED: ATOM      9 O4   LIG A   1       3.401 -26.551   9.486 +0.00 -0.00    -0.750 OA 
DOCKED: ATOM     10 O5   LIG A   1       3.693 -23.957  10.036 +0.00 -0.00    -0.750 OA 
DOCKED: ATOM     11 O6   LIG A   1       1.406 -24.862   8.903 +0.00 -0.00    -0.750 OA 
DOCKED: ATOM     12 O7   LIG A   1      -0.581 -23.249   8.425 +0.00 -0.00    -0.750 OA 
DOCKED: ATOM     13 O8   LIG A   1      -0.858 -24.923  10.234 +0.00 -0.00    -0.750 OA 
DOCKED: ATOM     14 O9   LIG A   1       1.758 -22.286   9.481 +0.00 -0.00    -0.750 OA 
DOCKED: ATOM     15 O10  LIG A   1       3.698 -24.781   7.502 +0.00 -0.01    -0.750 OA 
DOCKED: ATOM     16 O11  LIG A   1      -0.507 -22.319  10.999 +0.00 -0.00    -0.800 OA 
DOCKED: ATOM     17 O12  LIG A   1      -1.134 -27.558   9.681 +0.00 -0.00    -0.750 OA 
DOCKED: ATOM     18 O13  LIG A   1       3.588 -27.427   6.956 +0.00 -0.01    -0.800 OA 
DOCKED: ATOM     19 O14  LIG A   1       4.111 -22.199   7.997 +0.00 -0.01    -0.800 OA 
DOCKED: ATOM     20 V6   LIG A   1       0.448 -24.195   7.144 +0.00 +0.01    +1.500 Zn 
DOCKED: ATOM     21 O15  LIG A   1      -0.580 -24.008   5.827 +0.00 -0.01    -0.750 OA 
DOCKED: ATOM     22 V7   LIG A   1      -2.165 -25.312   5.937 +0.00 +0.01    +1.500 Zn 
DOCKED: ATOM     23 O16  LIG A   1      -2.958 -24.913   4.601 +0.00 -0.00    -0.800 OA 
DOCKED: ATOM     24 O17  LIG A   1      -0.855 -26.572   5.230 +0.00 -0.00    -0.750 OA 
DOCKED: ATOM     25 V8   LIG A   1       0.244 -27.192   6.413 +0.00 +0.01    +1.500 Zn 
DOCKED: ATOM     26 O18  LIG A   1      -0.813 -25.782   7.759 +0.00 -0.00    -0.750 OA 
DOCKED: ATOM     27 O19  LIG A   1      -2.809 -24.093   7.175 +0.00 -0.00    -0.750 OA 
DOCKED: ATOM     28 V9   LIG A   1      -2.155 -24.278   8.855 +0.00 +0.01    +1.500 Zn 
DOCKED: ATOM     29 V10  LIG A   1      -2.507 -27.280   8.257 +0.00 +0.00    +1.500 Zn 
DOCKED: ATOM     30 O20  LIG A   1      -3.100 -26.687   6.625 +0.00 -0.00    -0.750 OA 
DOCKED: ATOM     31 O21  LIG A   1      -1.165 -28.358   7.180 +0.00 -0.00    -0.750 OA 
DOCKED: ATOM     32 O22  LIG A   1       1.174 -27.395   8.236 +0.00 -0.00    -0.750 OA 
DOCKED: ATOM     33 O23  LIG A   1      -3.105 -25.862   9.159 +0.00 -0.00    -0.750 OA 
DOCKED: ATOM     34 O24  LIG A   1      -2.995 -23.218   9.706 +0.00 -0.00    -0.800 OA 
DOCKED: ATOM     35 O25  LIG A   1      -3.518 -28.444   8.665 +0.00 -0.00    -0.800 OA 
DOCKED: ATOM     36 O26  LIG A   1       1.451 -25.722   6.428 +0.00 -0.01    -0.750 OA 
DOCKED: ATOM     37 O27  LIG A   1       1.099 -28.325   5.663 +0.00 -0.00    -0.800 OA 
DOCKED: ATOM     38 O28  LIG A   1       1.726 -23.087   6.981 +0.00 -0.01    -0.750 OA 
DOCKED: ENDROOT
DOCKED: TORSDOF 0
DOCKED: TER
DOCKED: ENDMDL
________________________________________________________________________________


    FINAL DOCKED STATE:
    ________________________


Run:   10 / 20
Time taken for this run:   0.011s

DOCKED: MODEL        10
DOCKED: USER    Run = 10
DOCKED: USER
DOCKED: USER    Estimated Free Energy of Binding    =  -0.04 kcal/mol  [=(1)+(2)+(3)-(4)]
DOCKED: USER
DOCKED: USER    (1) Final Intermolecular Energy     =  -0.04 kcal/mol
DOCKED: USER        vdW + Hbond + desolv Energy     =  +0.00 kcal/mol
DOCKED: USER        Electrostatic Energy            =  -0.04 kcal/mol
DOCKED: USER        Moving Ligand-Fixed Receptor    =  -0.04 kcal/mol
DOCKED: USER        Moving Ligand-Moving Receptor   =  +0.00 kcal/mol
DOCKED: USER    (2) Final Total Internal Energy     =  +0.00 kcal/mol
DOCKED: USER    (3) Torsional Free Energy           =  +0.00 kcal/mol
DOCKED: USER    (4) Unbound System's Energy         =  +0.00 kcal/mol
DOCKED: USER
DOCKED: USER
DOCKED: USER                              x       y       z     vdW  Elec       q    Type
DOCKED: USER                           _______ _______ _______ _____ _____    ______ ____
DOCKED: ROOT
DOCKED: ATOM      1 V1   LIG A   1       7.336 -28.372 -10.543 +0.00 +0.01    +1.500 Zn 
DOCKED: ATOM      2 V2   LIG A   1       9.262 -26.319 -11.824 +0.00 +0.01    +1.500 Zn 
DOCKED: ATOM      3 V3   LIG A   1      10.372 -28.571 -10.019 +0.00 +0.01    +1.500 Zn 
DOCKED: ATOM      4 V4   LIG A   1       8.427 -27.870  -7.688 +0.00 +0.01    +1.500 Zn 
DOCKED: ATOM      5 V5   LIG A   1       7.217 -25.562  -9.331 +0.00 +0.01    +1.500 Zn 
DOCKED: ATOM      6 O1   LIG A   1       6.311 -29.421 -11.191 +0.00 -0.00    -0.800 OA 
DOCKED: ATOM      7 O2   LIG A   1       8.050 -27.512 -12.141 +0.00 -0.00    -0.750 OA 
DOCKED: ATOM      8 O3   LIG A   1       9.084 -29.444 -10.657 +0.00 -0.00    -0.750 OA 
DOCKED: ATOM      9 O4   LIG A   1       7.383 -28.889  -8.763 +0.00 -0.00    -0.750 OA 
DOCKED: ATOM     10 O5   LIG A   1       6.339 -26.909 -10.215 +0.00 -0.00    -0.750 OA 
DOCKED: ATOM     11 O6   LIG A   1       9.001 -26.983  -9.725 +0.00 -0.00    -0.750 OA 
DOCKED: ATOM     12 O7   LIG A   1      10.599 -25.196 -10.738 +0.00 -0.00    -0.750 OA 
DOCKED: ATOM     13 O8   LIG A   1      10.736 -27.507 -11.627 +0.00 -0.00    -0.750 OA 
DOCKED: ATOM     14 O9   LIG A   1       7.897 -25.038 -11.171 +0.00 -0.00    -0.750 OA 
DOCKED: ATOM     15 O10  LIG A   1       7.256 -26.411  -7.764 +0.00 -0.01    -0.750 OA 
DOCKED: ATOM     16 O11  LIG A   1       9.572 -25.626 -13.240 +0.00 -0.00    -0.800 OA 
DOCKED: ATOM     17 O12  LIG A   1      11.775 -29.522 -10.150 +0.00 -0.00    -0.750 OA 
DOCKED: ATOM     18 O13  LIG A   1       8.142 -28.451  -6.226 +0.00 -0.01    -0.800 OA 
DOCKED: ATOM     19 O14  LIG A   1       6.118 -24.424  -9.120 +0.00 -0.01    -0.800 OA 
DOCKED: ATOM     20 V6   LIG A   1      10.236 -25.483  -8.901 +0.00 +0.01    +1.500 Zn 
DOCKED: ATOM     21 O15  LIG A   1      11.524 -24.610  -8.263 +0.00 -0.01    -0.750 OA 
DOCKED: ATOM     22 V7   LIG A   1      13.273 -25.683  -8.378 +0.00 +0.01    +1.500 Zn 
DOCKED: ATOM     23 O16  LIG A   1      14.297 -24.632  -7.729 +0.00 -0.01    -0.800 OA 
DOCKED: ATOM     24 O17  LIG A   1      12.558 -26.542  -6.779 +0.00 -0.01    -0.750 OA 
DOCKED: ATOM     25 V8   LIG A   1      11.346 -27.735  -7.096 +0.00 +0.01    +1.500 Zn 
DOCKED: ATOM     26 O18  LIG A   1      11.607 -27.070  -9.195 +0.00 -0.00    -0.750 OA 
DOCKED: ATOM     27 O19  LIG A   1      13.226 -25.165 -10.157 +0.00 -0.00    -0.750 OA 
DOCKED: ATOM     28 V9   LIG A   1      12.181 -26.184 -11.231 +0.00 +0.00    +1.500 Zn 
DOCKED: ATOM     29 V10  LIG A   1      13.392 -28.492  -9.589 +0.00 +0.01    +1.500 Zn 
DOCKED: ATOM     30 O20  LIG A   1      14.269 -27.145  -8.705 +0.00 -0.00    -0.750 OA 
DOCKED: ATOM     31 O21  LIG A   1      12.711 -29.016  -7.749 +0.00 -0.00    -0.750 OA 
DOCKED: ATOM     32 O22  LIG A   1      10.009 -28.858  -8.181 +0.00 -0.00    -0.750 OA 
DOCKED: ATOM     33 O23  LIG A   1      13.352 -27.643 -11.157 +0.00 -0.00    -0.750 OA 
DOCKED: ATOM     34 O24  LIG A   1      12.466 -25.604 -12.693 +0.00 -0.00    -0.800 OA 
DOCKED: ATOM     35 O25  LIG A   1      14.490 -29.630  -9.801 +0.00 -0.00    -0.800 OA 
DOCKED: ATOM     36 O26  LIG A   1       9.873 -26.547  -7.292 +0.00 -0.01    -0.750 OA 
DOCKED: ATOM     37 O27  LIG A   1      11.036 -28.427  -5.681 +0.00 -0.01    -0.800 OA 
DOCKED: ATOM     38 O28  LIG A   1       8.833 -24.532  -8.770 +0.00 -0.01    -0.750 OA 
DOCKED: ENDROOT
DOCKED: TORSDOF 0
DOCKED: TER
DOCKED: ENDMDL
________________________________________________________________________________


    FINAL DOCKED STATE:
    ________________________


Run:   11 / 20
Time taken for this run:   0.011s

DOCKED: MODEL        11
DOCKED: USER    Run = 11
DOCKED: USER
DOCKED: USER    Estimated Free Energy of Binding    =  -0.04 kcal/mol  [=(1)+(2)+(3)-(4)]
DOCKED: USER
DOCKED: USER    (1) Final Intermolecular Energy     =  -0.04 kcal/mol
DOCKED: USER        vdW + Hbond + desolv Energy     =  +0.00 kcal/mol
DOCKED: USER        Electrostatic Energy            =  -0.04 kcal/mol
DOCKED: USER        Moving Ligand-Fixed Receptor    =  -0.04 kcal/mol
DOCKED: USER        Moving Ligand-Moving Receptor   =  +0.00 kcal/mol
DOCKED: USER    (2) Final Total Internal Energy     =  +0.00 kcal/mol
DOCKED: USER    (3) Torsional Free Energy           =  +0.00 kcal/mol
DOCKED: USER    (4) Unbound System's Energy         =  +0.00 kcal/mol
DOCKED: USER
DOCKED: USER
DOCKED: USER                              x       y       z     vdW  Elec       q    Type
DOCKED: USER                           _______ _______ _______ _____ _____    ______ ____
DOCKED: ROOT
DOCKED: ATOM      1 V1   LIG A   1      10.728 -25.353  -8.645 +0.00 +0.01    +1.500 Zn 
DOCKED: ATOM      2 V2   LIG A   1       9.512 -25.429 -11.488 +0.00 +0.01    +1.500 Zn 
DOCKED: ATOM      3 V3   LIG A   1       7.768 -24.589  -9.076 +0.00 +0.01    +1.500 Zn 
DOCKED: ATOM      4 V4   LIG A   1       8.502 -27.150  -7.460 +0.00 +0.01    +1.500 Zn 
DOCKED: ATOM      5 V5   LIG A   1      10.265 -28.162  -9.774 +0.00 +0.01    +1.500 Zn 
DOCKED: ATOM      6 O1   LIG A   1      11.950 -24.516  -8.030 +0.00 -0.01    -0.800 OA 
DOCKED: ATOM      7 O2   LIG A   1      10.761 -24.753 -10.500 +0.00 -0.00    -0.750 OA 
DOCKED: ATOM      8 O3   LIG A   1       9.219 -23.967  -8.499 +0.00 -0.01    -0.750 OA 
DOCKED: ATOM      9 O4   LIG A   1       9.925 -26.075  -7.139 +0.00 -0.01    -0.750 OA 
DOCKED: ATOM     10 O5   LIG A   1      11.461 -26.918  -9.150 +0.00 -0.00    -0.750 OA 
DOCKED: ATOM     11 O6   LIG A   1       8.851 -26.340  -9.578 +0.00 -0.00    -0.750 OA 
DOCKED: ATOM     12 O7   LIG A   1       7.818 -26.494 -11.963 +0.00 -0.00    -0.750 OA 
DOCKED: ATOM     13 O8   LIG A   1       8.118 -24.239 -10.976 +0.00 -0.00    -0.750 OA 
DOCKED: ATOM     14 O9   LIG A   1      10.438 -27.181 -11.544 +0.00 -0.00    -0.750 OA 
DOCKED: ATOM     15 O10  LIG A   1       9.565 -28.516  -8.173 +0.00 -0.00    -0.750 OA 
DOCKED: ATOM     16 O11  LIG A   1       9.834 -24.948 -12.987 +0.00 -0.00    -0.800 OA 
DOCKED: ATOM     17 O12  LIG A   1       6.575 -23.387  -8.922 +0.00 -0.01    -0.750 OA 
DOCKED: ATOM     18 O13  LIG A   1       8.135 -27.732  -6.017 +0.00 -0.01    -0.800 OA 
DOCKED: ATOM     19 O14  LIG A   1      11.146 -29.453 -10.099 +0.00 -0.00    -0.800 OA 
DOCKED: ATOM     20 V6   LIG A   1       7.356 -27.545 -10.455 +0.00 +0.01    +1.500 Zn 
DOCKED: ATOM     21 O15  LIG A   1       5.905 -28.167 -11.034 +0.00 -0.00    -0.750 OA 
DOCKED: ATOM     22 V7   LIG A   1       4.395 -26.780 -10.887 +0.00 +0.01    +1.500 Zn 
DOCKED: ATOM     23 O16  LIG A   1       3.174 -27.618 -11.503 +0.00 -0.00    -0.800 OA 
DOCKED: ATOM     24 O17  LIG A   1       4.362 -27.381  -9.032 +0.00 -0.00    -0.750 OA 
DOCKED: ATOM     25 V8   LIG A   1       5.611 -26.705  -8.044 +0.00 +0.01    +1.500 Zn 
DOCKED: ATOM     26 O18  LIG A   1       6.273 -25.794  -9.954 +0.00 -0.00    -0.750 OA 
DOCKED: ATOM     27 O19  LIG A   1       5.199 -26.059 -12.393 +0.00 -0.00    -0.750 OA 
DOCKED: ATOM     28 V9   LIG A   1       6.622 -24.984 -12.072 +0.00 +0.01    +1.500 Zn 
DOCKED: ATOM     29 V10  LIG A   1       4.858 -23.972  -9.758 +0.00 +0.01    +1.500 Zn 
DOCKED: ATOM     30 O20  LIG A   1       3.663 -25.216 -10.382 +0.00 -0.00    -0.750 OA 
DOCKED: ATOM     31 O21  LIG A   1       4.685 -24.953  -7.988 +0.00 -0.01    -0.750 OA 
DOCKED: ATOM     32 O22  LIG A   1       7.305 -25.640  -7.569 +0.00 -0.01    -0.750 OA 
DOCKED: ATOM     33 O23  LIG A   1       5.559 -23.619 -11.360 +0.00 -0.00    -0.750 OA 
DOCKED: ATOM     34 O24  LIG A   1       6.988 -24.402 -13.515 +0.00 -0.00    -0.800 OA 
DOCKED: ATOM     35 O25  LIG A   1       3.978 -22.681  -9.434 +0.00 -0.01    -0.800 OA 
DOCKED: ATOM     36 O26  LIG A   1       7.005 -27.895  -8.556 +0.00 -0.00    -0.750 OA 
DOCKED: ATOM     37 O27  LIG A   1       5.290 -27.186  -6.546 +0.00 -0.01    -0.800 OA 
DOCKED: ATOM     38 O28  LIG A   1       8.548 -28.746 -10.611 +0.00 -0.00    -0.750 OA 
DOCKED: ENDROOT
DOCKED: TORSDOF 0
DOCKED: TER
DOCKED: ENDMDL
________________________________________________________________________________


    FINAL DOCKED STATE:
    ________________________


Run:   12 / 20
Time taken for this run:   0.011s

DOCKED: MODEL        12
DOCKED: USER    Run = 12
DOCKED: USER
DOCKED: USER    Estimated Free Energy of Binding    =  -0.04 kcal/mol  [=(1)+(2)+(3)-(4)]
DOCKED: USER
DOCKED: USER    (1) Final Intermolecular Energy     =  -0.04 kcal/mol
DOCKED: USER        vdW + Hbond + desolv Energy     =  +0.00 kcal/mol
DOCKED: USER        Electrostatic Energy            =  -0.04 kcal/mol
DOCKED: USER        Moving Ligand-Fixed Receptor    =  -0.04 kcal/mol
DOCKED: USER        Moving Ligand-Moving Receptor   =  +0.00 kcal/mol
DOCKED: USER    (2) Final Total Internal Energy     =  +0.00 kcal/mol
DOCKED: USER    (3) Torsional Free Energy           =  +0.00 kcal/mol
DOCKED: USER    (4) Unbound System's Energy         =  +0.00 kcal/mol
DOCKED: USER
DOCKED: USER
DOCKED: USER                              x       y       z     vdW  Elec       q    Type
DOCKED: USER                           _______ _______ _______ _____ _____    ______ ____
DOCKED: ROOT
DOCKED: ATOM      1 V1   LIG A   1       3.310 -26.376 -10.308 +0.00 +0.01    +1.500 Zn 
DOCKED: ATOM      2 V2   LIG A   1       3.487 -23.498 -11.426 +0.00 +0.01    +1.500 Zn 
DOCKED: ATOM      3 V3   LIG A   1       6.054 -25.186 -11.075 +0.00 +0.01    +1.500 Zn 
DOCKED: ATOM      4 V4   LIG A   1       5.407 -25.828  -8.096 +0.00 +0.01    +1.500 Zn 
DOCKED: ATOM      5 V5   LIG A   1       2.820 -24.162  -8.250 +0.00 +0.01    +1.500 Zn 
DOCKED: ATOM      6 O1   LIG A   1       2.546 -27.682 -10.840 +0.00 -0.00    -0.800 OA 
DOCKED: ATOM      7 O2   LIG A   1       2.788 -25.064 -11.653 +0.00 -0.00    -0.750 OA 
DOCKED: ATOM      8 O3   LIG A   1       5.023 -26.464 -11.438 +0.00 -0.00    -0.750 OA 
DOCKED: ATOM      9 O4   LIG A   1       4.406 -27.056  -8.976 +0.00 -0.00    -0.750 OA 
DOCKED: ATOM     10 O5   LIG A   1       2.162 -25.623  -9.144 +0.00 -0.00    -0.750 OA 
DOCKED: ATOM     11 O6   LIG A   1       4.547 -24.496  -9.755 +0.00 -0.00    -0.750 OA 
DOCKED: ATOM     12 O7   LIG A   1       4.689 -22.042 -10.611 +0.00 -0.00    -0.750 OA 
DOCKED: ATOM     13 O8   LIG A   1       5.175 -23.860 -12.225 +0.00 -0.00    -0.750 OA 
DOCKED: ATOM     14 O9   LIG A   1       2.271 -23.123  -9.906 +0.00 -0.00    -0.750 OA 
DOCKED: ATOM     15 O10  LIG A   1       3.923 -25.103  -7.213 +0.00 -0.01    -0.750 OA 
DOCKED: ATOM     16 O11  LIG A   1       2.792 -22.547 -12.520 +0.00 -0.00    -0.800 OA 
DOCKED: ATOM     17 O12  LIG A   1       7.441 -25.330 -12.047 +0.00 -0.00    -0.750 OA 
DOCKED: ATOM     18 O13  LIG A   1       6.105 -26.675  -6.934 +0.00 -0.01    -0.800 OA 
DOCKED: ATOM     19 O14  LIG A   1       1.648 -23.723  -7.259 +0.00 -0.01    -0.800 OA 
DOCKED: ATOM     20 V6   LIG A   1       5.406 -22.724  -8.994 +0.00 +0.01    +1.500 Zn 
DOCKED: ATOM     21 O15  LIG A   1       6.436 -21.446  -8.632 +0.00 -0.01    -0.750 OA 
DOCKED: ATOM     22 V7   LIG A   1       8.150 -21.534  -9.763 +0.00 +0.01    +1.500 Zn 
DOCKED: ATOM     23 O16  LIG A   1       8.914 -20.228  -9.230 +0.00 -0.01    -0.800 OA 
DOCKED: ATOM     24 O17  LIG A   1       8.672 -22.846  -8.417 +0.00 -0.01    -0.750 OA 
DOCKED: ATOM     25 V8   LIG A   1       7.973 -24.413  -8.644 +0.00 +0.01    +1.500 Zn 
DOCKED: ATOM     26 O18  LIG A   1       6.912 -23.413 -10.315 +0.00 -0.00    -0.750 OA 
DOCKED: ATOM     27 O19  LIG A   1       7.054 -20.855 -11.093 +0.00 -0.00    -0.750 OA 
DOCKED: ATOM     28 V9   LIG A   1       6.053 -22.082 -11.974 +0.00 +0.01    +1.500 Zn 
DOCKED: ATOM     29 V10  LIG A   1       8.640 -23.748 -11.820 +0.00 +0.01    +1.500 Zn 
DOCKED: ATOM     30 O20  LIG A   1       9.297 -22.287 -10.926 +0.00 -0.00    -0.750 OA 
DOCKED: ATOM     31 O21  LIG A   1       9.189 -24.788 -10.164 +0.00 -0.00    -0.750 OA 
DOCKED: ATOM     32 O22  LIG A   1       6.771 -25.868  -9.459 +0.00 -0.00    -0.750 OA 
DOCKED: ATOM     33 O23  LIG A   1       7.536 -22.806 -12.857 +0.00 -0.00    -0.750 OA 
DOCKED: ATOM     34 O24  LIG A   1       5.355 -21.235 -13.136 +0.00 -0.00    -0.800 OA 
DOCKED: ATOM     35 O25  LIG A   1       9.811 -24.187 -12.810 +0.00 -0.00    -0.800 OA 
DOCKED: ATOM     36 O26  LIG A   1       6.285 -24.050  -7.844 +0.00 -0.01    -0.750 OA 
DOCKED: ATOM     37 O27  LIG A   1       8.668 -25.362  -7.551 +0.00 -0.01    -0.800 OA 
DOCKED: ATOM     38 O28  LIG A   1       4.019 -22.581  -8.023 +0.00 -0.01    -0.750 OA 
DOCKED: ENDROOT
DOCKED: TORSDOF 0
DOCKED: TER
DOCKED: ENDMDL
________________________________________________________________________________


    FINAL DOCKED STATE:
    ________________________


Run:   13 / 20
Time taken for this run:   0.011s

DOCKED: MODEL        13
DOCKED: USER    Run = 13
DOCKED: USER
DOCKED: USER    Estimated Free Energy of Binding    =  -0.04 kcal/mol  [=(1)+(2)+(3)-(4)]
DOCKED: USER
DOCKED: USER    (1) Final Intermolecular Energy     =  -0.04 kcal/mol
DOCKED: USER        vdW + Hbond + desolv Energy     =  +0.00 kcal/mol
DOCKED: USER        Electrostatic Energy            =  -0.04 kcal/mol
DOCKED: USER        Moving Ligand-Fixed Receptor    =  -0.04 kcal/mol
DOCKED: USER        Moving Ligand-Moving Receptor   =  +0.00 kcal/mol
DOCKED: USER    (2) Final Total Internal Energy     =  +0.00 kcal/mol
DOCKED: USER    (3) Torsional Free Energy           =  +0.00 kcal/mol
DOCKED: USER    (4) Unbound System's Energy         =  +0.00 kcal/mol
DOCKED: USER
DOCKED: USER
DOCKED: USER                              x       y       z     vdW  Elec       q    Type
DOCKED: USER                           _______ _______ _______ _____ _____    ______ ____
DOCKED: ROOT
DOCKED: ATOM      1 V1   LIG A   1       9.212 -23.477   9.587 +0.00 +0.01    +1.500 Zn 
DOCKED: ATOM      2 V2   LIG A   1       8.591 -26.433   8.921 +0.00 +0.01    +1.500 Zn 
DOCKED: ATOM      3 V3   LIG A   1       6.304 -24.506   9.708 +0.00 +0.01    +1.500 Zn 
DOCKED: ATOM      4 V4   LIG A   1       7.754 -23.606  12.315 +0.00 +0.00    +1.500 Zn 
DOCKED: ATOM      5 V5   LIG A   1      10.113 -25.492  11.709 +0.00 +0.01    +1.500 Zn 
DOCKED: ATOM      6 O1   LIG A   1       9.876 -22.305   8.716 +0.00 -0.01    -0.800 OA 
DOCKED: ATOM      7 O2   LIG A   1       9.287 -24.965   8.328 +0.00 -0.01    -0.750 OA 
DOCKED: ATOM      8 O3   LIG A   1       7.268 -23.366   8.935 +0.00 -0.01    -0.750 OA 
DOCKED: ATOM      9 O4   LIG A   1       8.548 -22.569  11.060 +0.00 -0.00    -0.750 OA 
DOCKED: ATOM     10 O5   LIG A   1      10.587 -24.196  10.500 +0.00 -0.00    -0.750 OA 
DOCKED: ATOM     11 O6   LIG A   1       8.069 -25.175  10.671 +0.00 -0.00    -0.750 OA 
DOCKED: ATOM     12 O7   LIG A   1       7.573 -27.686  10.195 +0.00 -0.00    -0.750 OA 
DOCKED: ATOM     13 O8   LIG A   1       6.773 -26.016   8.546 +0.00 -0.01    -0.750 OA 
DOCKED: ATOM     14 O9   LIG A   1      10.146 -26.745  10.111 +0.00 -0.00    -0.750 OA 
DOCKED: ATOM     15 O10  LIG A   1       9.378 -24.356  12.869 +0.00 -0.00    -0.750 OA 
DOCKED: ATOM     16 O11  LIG A   1       8.918 -27.550   7.813 +0.00 -0.01    -0.800 OA 
DOCKED: ATOM     17 O12  LIG A   1       4.718 -24.350   9.117 +0.00 -0.01    -0.750 OA 
DOCKED: ATOM     18 O13  LIG A   1       7.436 -22.584  13.502 +0.00 -0.00    -0.800 OA 
DOCKED: ATOM     19 O14  LIG A   1      11.481 -25.921  12.411 +0.00 -0.00    -0.800 OA 
DOCKED: ATOM     20 V6   LIG A   1       7.349 -26.777  11.843 +0.00 +0.01    +1.500 Zn 
DOCKED: ATOM     21 O15  LIG A   1       6.386 -27.918  12.616 +0.00 -0.00    -0.750 OA 
DOCKED: ATOM     22 V7   LIG A   1       4.440 -27.806  11.964 +0.00 +0.00    +1.500 Zn 
DOCKED: ATOM     23 O16  LIG A   1       3.778 -28.979  12.835 +0.00 -0.00    -0.800 OA 
DOCKED: ATOM     24 O17  LIG A   1       4.366 -26.319  13.223 +0.00 -0.00    -0.750 OA 
DOCKED: ATOM     25 V8   LIG A   1       5.062 -24.850  12.629 +0.00 +0.00    +1.500 Zn 
DOCKED: ATOM     26 O18  LIG A   1       5.585 -26.108  10.880 +0.00 -0.00    -0.750 OA 
DOCKED: ATOM     27 O19  LIG A   1       5.105 -28.714  10.491 +0.00 -0.00    -0.750 OA 
DOCKED: ATOM     28 V9   LIG A   1       5.899 -27.677   9.236 +0.00 +0.01    +1.500 Zn 
DOCKED: ATOM     29 V10  LIG A   1       3.540 -25.791   9.842 +0.00 +0.01    +1.500 Zn 
DOCKED: ATOM     30 O20  LIG A   1       3.067 -27.088  11.050 +0.00 -0.00    -0.750 OA 
DOCKED: ATOM     31 O21  LIG A   1       3.507 -24.538  11.440 +0.00 -0.00    -0.750 OA 
DOCKED: ATOM     32 O22  LIG A   1       6.080 -23.597  11.356 +0.00 -0.00    -0.750 OA 
DOCKED: ATOM     33 O23  LIG A   1       4.276 -26.928   8.681 +0.00 -0.00    -0.750 OA 
DOCKED: ATOM     34 O24  LIG A   1       6.217 -28.699   8.048 +0.00 -0.00    -0.800 OA 
DOCKED: ATOM     35 O25  LIG A   1       2.173 -25.363   9.140 +0.00 -0.00    -0.800 OA 
DOCKED: ATOM     36 O26  LIG A   1       6.881 -25.267  13.005 +0.00 -0.00    -0.750 OA 
DOCKED: ATOM     37 O27  LIG A   1       4.735 -23.734  13.737 +0.00 -0.00    -0.800 OA 
DOCKED: ATOM     38 O28  LIG A   1       8.935 -26.933  12.433 +0.00 -0.00    -0.750 OA 
DOCKED: ENDROOT
DOCKED: TORSDOF 0
DOCKED: TER
DOCKED: ENDMDL
________________________________________________________________________________


    FINAL DOCKED STATE:
    ________________________


Run:   14 / 20
Time taken for this run:   0.011s

DOCKED: MODEL        14
DOCKED: USER    Run = 14
DOCKED: USER
DOCKED: USER    Estimated Free Energy of Binding    =  -0.04 kcal/mol  [=(1)+(2)+(3)-(4)]
DOCKED: USER
DOCKED: USER    (1) Final Intermolecular Energy     =  -0.04 kcal/mol
DOCKED: USER        vdW + Hbond + desolv Energy     =  +0.00 kcal/mol
DOCKED: USER        Electrostatic Energy            =  -0.04 kcal/mol
DOCKED: USER        Moving Ligand-Fixed Receptor    =  -0.04 kcal/mol
DOCKED: USER        Moving Ligand-Moving Receptor   =  +0.00 kcal/mol
DOCKED: USER    (2) Final Total Internal Energy     =  +0.00 kcal/mol
DOCKED: USER    (3) Torsional Free Energy           =  +0.00 kcal/mol
DOCKED: USER    (4) Unbound System's Energy         =  +0.00 kcal/mol
DOCKED: USER
DOCKED: USER
DOCKED: USER                              x       y       z     vdW  Elec       q    Type
DOCKED: USER                           _______ _______ _______ _____ _____    ______ ____
DOCKED: ROOT
DOCKED: ATOM      1 V1   LIG A   1       7.485 -27.449  10.394 +0.00 +0.01    +1.500 Zn 
DOCKED: ATOM      2 V2   LIG A   1       8.959 -24.920  11.392 +0.00 +0.01    +1.500 Zn 
DOCKED: ATOM      3 V3   LIG A   1       5.870 -24.960  11.250 +0.00 +0.01    +1.500 Zn 
DOCKED: ATOM      4 V4   LIG A   1       5.867 -25.878   8.273 +0.00 +0.01    +1.500 Zn 
DOCKED: ATOM      5 V5   LIG A   1       8.947 -25.867   8.218 +0.00 +0.01    +1.500 Zn 
DOCKED: ATOM      6 O1   LIG A   1       7.462 -28.956  10.943 +0.00 -0.00    -0.800 OA 
DOCKED: ATOM      7 O2   LIG A   1       8.720 -26.613  11.651 +0.00 -0.00    -0.750 OA 
DOCKED: ATOM      8 O3   LIG A   1       6.074 -26.589  11.615 +0.00 -0.00    -0.750 OA 
DOCKED: ATOM      9 O4   LIG A   1       6.108 -27.443   9.153 +0.00 -0.00    -0.750 OA 
DOCKED: ATOM     10 O5   LIG A   1       8.776 -27.444   9.140 +0.00 -0.00    -0.750 OA 
DOCKED: ATOM     11 O6   LIG A   1       7.418 -25.204   9.824 +0.00 -0.00    -0.750 OA 
DOCKED: ATOM     12 O7   LIG A   1       8.676 -23.053  10.577 +0.00 -0.00    -0.750 OA 
DOCKED: ATOM     13 O8   LIG A   1       7.399 -24.307  12.293 +0.00 -0.00    -0.750 OA 
DOCKED: ATOM     14 O9   LIG A   1      10.080 -25.274   9.795 +0.00 -0.00    -0.750 OA 
DOCKED: ATOM     15 O10  LIG A   1       7.444 -26.075   7.282 +0.00 -0.01    -0.750 OA 
DOCKED: ATOM     16 O11  LIG A   1      10.128 -24.484  12.405 +0.00 -0.00    -0.800 OA 
DOCKED: ATOM     17 O12  LIG A   1       4.693 -24.324  12.299 +0.00 -0.00    -0.750 OA 
DOCKED: ATOM     18 O13  LIG A   1       4.746 -26.225   7.187 +0.00 -0.01    -0.800 OA 
DOCKED: ATOM     19 O14  LIG A   1      10.101 -26.139   7.149 +0.00 -0.01    -0.800 OA 
DOCKED: ATOM     20 V6   LIG A   1       7.597 -23.256   9.032 +0.00 +0.01    +1.500 Zn 
DOCKED: ATOM     21 O15  LIG A   1       7.393 -21.627   8.667 +0.00 -0.01    -0.750 OA 
DOCKED: ATOM     22 V7   LIG A   1       5.982 -20.767   9.889 +0.00 +0.01    +1.500 Zn 
DOCKED: ATOM     23 O16  LIG A   1       6.006 -19.260   9.339 +0.00 -0.01    -0.800 OA 
DOCKED: ATOM     24 O17  LIG A   1       4.747 -21.603   8.631 +0.00 -0.01    -0.750 OA 
DOCKED: ATOM     25 V8   LIG A   1       4.508 -23.296   8.890 +0.00 +0.01    +1.500 Zn 
DOCKED: ATOM     26 O18  LIG A   1       6.050 -23.012  10.458 +0.00 -0.00    -0.750 OA 
DOCKED: ATOM     27 O19  LIG A   1       7.359 -20.774  11.129 +0.00 -0.00    -0.750 OA 
DOCKED: ATOM     28 V9   LIG A   1       7.600 -22.338  12.010 +0.00 +0.01    +1.500 Zn 
DOCKED: ATOM     29 V10  LIG A   1       4.520 -22.349  12.064 +0.00 +0.01    +1.500 Zn 
DOCKED: ATOM     30 O20  LIG A   1       4.692 -20.772  11.143 +0.00 -0.00    -0.750 OA 
DOCKED: ATOM     31 O21  LIG A   1       3.387 -22.943  10.487 +0.00 -0.00    -0.750 OA 
DOCKED: ATOM     32 O22  LIG A   1       4.791 -25.163   9.706 +0.00 -0.00    -0.750 OA 
DOCKED: ATOM     33 O23  LIG A   1       6.024 -22.141  13.000 +0.00 -0.00    -0.750 OA 
DOCKED: ATOM     34 O24  LIG A   1       8.721 -21.992  13.095 +0.00 -0.00    -0.800 OA 
DOCKED: ATOM     35 O25  LIG A   1       3.367 -22.077  13.133 +0.00 -0.00    -0.800 OA 
DOCKED: ATOM     36 O26  LIG A   1       6.068 -23.909   7.989 +0.00 -0.01    -0.750 OA 
DOCKED: ATOM     37 O27  LIG A   1       3.340 -23.731   7.879 +0.00 -0.01    -0.800 OA 
DOCKED: ATOM     38 O28  LIG A   1       8.774 -23.891   7.984 +0.00 -0.01    -0.750 OA 
DOCKED: ENDROOT
DOCKED: TORSDOF 0
DOCKED: TER
DOCKED: ENDMDL
________________________________________________________________________________


    FINAL DOCKED STATE:
    ________________________


Run:   15 / 20
Time taken for this run:   0.011s

DOCKED: MODEL        15
DOCKED: USER    Run = 15
DOCKED: USER
DOCKED: USER    Estimated Free Energy of Binding    =  -0.04 kcal/mol  [=(1)+(2)+(3)-(4)]
DOCKED: USER
DOCKED: USER    (1) Final Intermolecular Energy     =  -0.04 kcal/mol
DOCKED: USER        vdW + Hbond + desolv Energy     =  +0.00 kcal/mol
DOCKED: USER        Electrostatic Energy            =  -0.04 kcal/mol
DOCKED: USER        Moving Ligand-Fixed Receptor    =  -0.04 kcal/mol
DOCKED: USER        Moving Ligand-Moving Receptor   =  +0.00 kcal/mol
DOCKED: USER    (2) Final Total Internal Energy     =  +0.00 kcal/mol
DOCKED: USER    (3) Torsional Free Energy           =  +0.00 kcal/mol
DOCKED: USER    (4) Unbound System's Energy         =  +0.00 kcal/mol
DOCKED: USER
DOCKED: USER
DOCKED: USER                              x       y       z     vdW  Elec       q    Type
DOCKED: USER                           _______ _______ _______ _____ _____    ______ ____
DOCKED: ROOT
DOCKED: ATOM      1 V1   LIG A   1       8.673 -22.561   9.327 +0.00 +0.01    +1.500 Zn 
DOCKED: ATOM      2 V2   LIG A   1       8.360 -25.063  11.117 +0.00 +0.01    +1.500 Zn 
DOCKED: ATOM      3 V3   LIG A   1       6.857 -24.888   8.421 +0.00 +0.01    +1.500 Zn 
DOCKED: ATOM      4 V4   LIG A   1       5.616 -22.116   9.119 +0.00 +0.01    +1.500 Zn 
DOCKED: ATOM      5 V5   LIG A   1       7.014 -22.129  11.864 +0.00 +0.01    +1.500 Zn 
DOCKED: ATOM      6 O1   LIG A   1       9.960 -21.902   8.632 +0.00 -0.01    -0.800 OA 
DOCKED: ATOM      7 O2   LIG A   1       9.487 -24.062  10.269 +0.00 -0.00    -0.750 OA 
DOCKED: ATOM      8 O3   LIG A   1       8.214 -24.014   7.950 +0.00 -0.01    -0.750 OA 
DOCKED: ATOM      9 O4   LIG A   1       7.266 -21.657   8.528 +0.00 -0.01    -0.750 OA 
DOCKED: ATOM     10 O5   LIG A   1       8.505 -21.686  10.891 +0.00 -0.00    -0.750 OA 
DOCKED: ATOM     11 O6   LIG A   1       6.861 -23.719  10.189 +0.00 -0.00    -0.750 OA 
DOCKED: ATOM     12 O7   LIG A   1       6.538 -25.779  11.747 +0.00 -0.00    -0.750 OA 
DOCKED: ATOM     13 O8   LIG A   1       7.793 -26.113   9.635 +0.00 -0.00    -0.750 OA 
DOCKED: ATOM     14 O9   LIG A   1       8.131 -23.690  12.529 +0.00 -0.00    -0.750 OA 
DOCKED: ATOM     15 O10  LIG A   1       5.872 -21.293  10.781 +0.00 -0.00    -0.750 OA 
DOCKED: ATOM     16 O11  LIG A   1       9.248 -26.109  11.953 +0.00 -0.00    -0.800 OA 
DOCKED: ATOM     17 O12  LIG A   1       6.544 -26.065   7.235 +0.00 -0.01    -0.750 OA 
DOCKED: ATOM     18 O13  LIG A   1       4.649 -21.080   8.379 +0.00 -0.01    -0.800 OA 
DOCKED: ATOM     19 O14  LIG A   1       7.072 -21.192  13.155 +0.00 -0.00    -0.800 OA 
DOCKED: ATOM     20 V6   LIG A   1       5.217 -24.515  11.246 +0.00 +0.01    +1.500 Zn 
DOCKED: ATOM     21 O15  LIG A   1       3.860 -25.389  11.718 +0.00 -0.00    -0.750 OA 
DOCKED: ATOM     22 V7   LIG A   1       3.400 -26.843  10.340 +0.00 +0.01    +1.500 Zn 
DOCKED: ATOM     23 O16  LIG A   1       2.114 -27.502  11.035 +0.00 -0.00    -0.800 OA 
DOCKED: ATOM     24 O17  LIG A   1       2.586 -25.341   9.398 +0.00 -0.00    -0.750 OA 
DOCKED: ATOM     25 V8   LIG A   1       3.714 -24.340   8.549 +0.00 +0.01    +1.500 Zn 
DOCKED: ATOM     26 O18  LIG A   1       5.212 -25.684   9.479 +0.00 -0.00    -0.750 OA 
DOCKED: ATOM     27 O19  LIG A   1       4.807 -27.746  11.139 +0.00 -0.00    -0.750 OA 
DOCKED: ATOM     28 V9   LIG A   1       6.457 -27.287  10.548 +0.00 +0.01    +1.500 Zn 
DOCKED: ATOM     29 V10  LIG A   1       5.059 -27.274   7.803 +0.00 +0.01    +1.500 Zn 
DOCKED: ATOM     30 O20  LIG A   1       3.569 -27.718   8.777 +0.00 -0.00    -0.750 OA 
DOCKED: ATOM     31 O21  LIG A   1       3.943 -25.713   7.137 +0.00 -0.01    -0.750 OA 
DOCKED: ATOM     32 O22  LIG A   1       5.536 -23.624   7.919 +0.00 -0.01    -0.750 OA 
DOCKED: ATOM     33 O23  LIG A   1       6.202 -28.111   8.886 +0.00 -0.00    -0.750 OA 
DOCKED: ATOM     34 O24  LIG A   1       7.424 -28.323  11.287 +0.00 -0.00    -0.800 OA 
DOCKED: ATOM     35 O25  LIG A   1       5.002 -28.211   6.513 +0.00 -0.01    -0.800 OA 
DOCKED: ATOM     36 O26  LIG A   1       4.281 -23.290  10.031 +0.00 -0.00    -0.750 OA 
DOCKED: ATOM     37 O27  LIG A   1       2.826 -23.295   7.714 +0.00 -0.01    -0.800 OA 
DOCKED: ATOM     38 O28  LIG A   1       5.530 -23.339  12.432 +0.00 -0.00    -0.750 OA 
DOCKED: ENDROOT
DOCKED: TORSDOF 0
DOCKED: TER
DOCKED: ENDMDL
________________________________________________________________________________


    FINAL DOCKED STATE:
    ________________________


Run:   16 / 20
Time taken for this run:   0.011s

DOCKED: MODEL        16
DOCKED: USER    Run = 16
DOCKED: USER
DOCKED: USER    Estimated Free Energy of Binding    =  -0.04 kcal/mol  [=(1)+(2)+(3)-(4)]
DOCKED: USER
DOCKED: USER    (1) Final Intermolecular Energy     =  -0.04 kcal/mol
DOCKED: USER        vdW + Hbond + desolv Energy     =  +0.00 kcal/mol
DOCKED: USER        Electrostatic Energy            =  -0.04 kcal/mol
DOCKED: USER        Moving Ligand-Fixed Receptor    =  -0.04 kcal/mol
DOCKED: USER        Moving Ligand-Moving Receptor   =  +0.00 kcal/mol
DOCKED: USER    (2) Final Total Internal Energy     =  +0.00 kcal/mol
DOCKED: USER    (3) Torsional Free Energy           =  +0.00 kcal/mol
DOCKED: USER    (4) Unbound System's Energy         =  +0.00 kcal/mol
DOCKED: USER
DOCKED: USER
DOCKED: USER                              x       y       z     vdW  Elec       q    Type
DOCKED: USER                           _______ _______ _______ _____ _____    ______ ____
DOCKED: ROOT
DOCKED: ATOM      1 V1   LIG A   1      13.442 -25.101   9.237 +0.00 +0.01    +1.500 Zn 
DOCKED: ATOM      2 V2   LIG A   1      10.652 -26.149   8.412 +0.00 +0.01    +1.500 Zn 
DOCKED: ATOM      3 V3   LIG A   1      10.982 -23.244   9.419 +0.00 +0.01    +1.500 Zn 
DOCKED: ATOM      4 V4   LIG A   1      12.452 -24.149  12.012 +0.00 +0.00    +1.500 Zn 
DOCKED: ATOM      5 V5   LIG A   1      12.191 -27.105  11.185 +0.00 +0.00    +1.500 Zn 
DOCKED: ATOM      6 O1   LIG A   1      14.812 -24.952   8.415 +0.00 -0.00    -0.800 OA 
DOCKED: ATOM      7 O2   LIG A   1      12.278 -25.885   7.883 +0.00 -0.01    -0.750 OA 
DOCKED: ATOM      8 O3   LIG A   1      12.486 -23.370   8.679 +0.00 -0.00    -0.750 OA 
DOCKED: ATOM      9 O4   LIG A   1      13.792 -24.156  10.793 +0.00 -0.00    -0.750 OA 
DOCKED: ATOM     10 O5   LIG A   1      13.570 -26.706  10.042 +0.00 -0.00    -0.750 OA 
DOCKED: ATOM     11 O6   LIG A   1      11.364 -25.152  10.259 +0.00 -0.00    -0.750 OA 
DOCKED: ATOM     12 O7   LIG A   1       9.009 -26.076   9.645 +0.00 -0.00    -0.750 OA 
DOCKED: ATOM     13 O8   LIG A   1      10.013 -24.377   8.143 +0.00 -0.01    -0.750 OA 
DOCKED: ATOM     14 O9   LIG A   1      11.210 -27.702   9.510 +0.00 -0.00    -0.750 OA 
DOCKED: ATOM     15 O10  LIG A   1      12.702 -25.954  12.446 +0.00 -0.00    -0.750 OA 
DOCKED: ATOM     16 O11  LIG A   1       9.932 -26.953   7.221 +0.00 -0.01    -0.800 OA 
DOCKED: ATOM     17 O12  LIG A   1      10.258 -21.793   8.908 +0.00 -0.01    -0.750 OA 
DOCKED: ATOM     18 O13  LIG A   1      13.096 -23.411  13.276 +0.00 -0.00    -0.800 OA 
DOCKED: ATOM     19 O14  LIG A   1      12.564 -28.531  11.797 +0.00 -0.00    -0.800 OA 
DOCKED: ATOM     20 V6   LIG A   1       9.596 -25.510  11.356 +0.00 +0.01    +1.500 Zn 
DOCKED: ATOM     21 O15  LIG A   1       8.091 -25.385  12.096 +0.00 -0.00    -0.750 OA 
DOCKED: ATOM     22 V7   LIG A   1       7.135 -23.653  11.537 +0.00 +0.01    +1.500 Zn 
DOCKED: ATOM     23 O16  LIG A   1       5.766 -23.803  12.359 +0.00 -0.00    -0.800 OA 
DOCKED: ATOM     24 O17  LIG A   1       8.300 -22.869  12.892 +0.00 -0.00    -0.750 OA 
DOCKED: ATOM     25 V8   LIG A   1       9.926 -22.605  12.363 +0.00 +0.00    +1.500 Zn 
DOCKED: ATOM     26 O18  LIG A   1       9.214 -23.603  10.516 +0.00 -0.00    -0.750 OA 
DOCKED: ATOM     27 O19  LIG A   1       6.786 -24.598   9.982 +0.00 -0.00    -0.750 OA 
DOCKED: ATOM     28 V9   LIG A   1       8.125 -24.605   8.762 +0.00 +0.01    +1.500 Zn 
DOCKED: ATOM     29 V10  LIG A   1       8.387 -21.649   9.590 +0.00 +0.01    +1.500 Zn 
DOCKED: ATOM     30 O20  LIG A   1       7.008 -22.049  10.732 +0.00 -0.00    -0.750 OA 
DOCKED: ATOM     31 O21  LIG A   1       9.368 -21.052  11.265 +0.00 -0.00    -0.750 OA 
DOCKED: ATOM     32 O22  LIG A   1      11.569 -22.679  11.130 +0.00 -0.00    -0.750 OA 
DOCKED: ATOM     33 O23  LIG A   1       7.876 -22.801   8.328 +0.00 -0.01    -0.750 OA 
DOCKED: ATOM     34 O24  LIG A   1       7.482 -25.343   7.499 +0.00 -0.01    -0.800 OA 
DOCKED: ATOM     35 O25  LIG A   1       8.014 -20.224   8.977 +0.00 -0.01    -0.800 OA 
DOCKED: ATOM     36 O26  LIG A   1      10.565 -24.377  12.632 +0.00 -0.00    -0.750 OA 
DOCKED: ATOM     37 O27  LIG A   1      10.645 -21.802  13.553 +0.00 -0.00    -0.800 OA 
DOCKED: ATOM     38 O28  LIG A   1      10.319 -26.961  11.866 +0.00 -0.00    -0.750 OA 
DOCKED: ENDROOT
DOCKED: TORSDOF 0
DOCKED: TER
DOCKED: ENDMDL
________________________________________________________________________________


    FINAL DOCKED STATE:
    ________________________


Run:   17 / 20
Time taken for this run:   0.011s

DOCKED: MODEL        17
DOCKED: USER    Run = 17
DOCKED: USER
DOCKED: USER    Estimated Free Energy of Binding    =  -0.04 kcal/mol  [=(1)+(2)+(3)-(4)]
DOCKED: USER
DOCKED: USER    (1) Final Intermolecular Energy     =  -0.04 kcal/mol
DOCKED: USER        vdW + Hbond + desolv Energy     =  +0.00 kcal/mol
DOCKED: USER        Electrostatic Energy            =  -0.04 kcal/mol
DOCKED: USER        Moving Ligand-Fixed Receptor    =  -0.04 kcal/mol
DOCKED: USER        Moving Ligand-Moving Receptor   =  +0.00 kcal/mol
DOCKED: USER    (2) Final Total Internal Energy     =  +0.00 kcal/mol
DOCKED: USER    (3) Torsional Free Energy           =  +0.00 kcal/mol
DOCKED: USER    (4) Unbound System's Energy         =  +0.00 kcal/mol
DOCKED: USER
DOCKED: USER
DOCKED: USER                              x       y       z     vdW  Elec       q    Type
DOCKED: USER                           _______ _______ _______ _____ _____    ______ ____
DOCKED: ROOT
DOCKED: ATOM      1 V1   LIG A   1       6.295 -27.610  10.794 +0.00 +0.01    +1.500 Zn 
DOCKED: ATOM      2 V2   LIG A   1       9.271 -26.814  11.061 +0.00 +0.01    +1.500 Zn 
DOCKED: ATOM      3 V3   LIG A   1       7.059 -24.679  11.389 +0.00 +0.01    +1.500 Zn 
DOCKED: ATOM      4 V4   LIG A   1       5.723 -25.426   8.675 +0.00 +0.01    +1.500 Zn 
DOCKED: ATOM      5 V5   LIG A   1       7.862 -27.583   8.163 +0.00 +0.01    +1.500 Zn 
DOCKED: ATOM      6 O1   LIG A   1       5.391 -28.648  11.617 +0.00 -0.00    -0.800 OA 
DOCKED: ATOM      7 O2   LIG A   1       8.021 -27.842  11.671 +0.00 -0.00    -0.750 OA 
DOCKED: ATOM      8 O3   LIG A   1       6.187 -25.969  12.023 +0.00 -0.00    -0.750 OA 
DOCKED: ATOM      9 O4   LIG A   1       5.043 -26.680   9.792 +0.00 -0.00    -0.750 OA 
DOCKED: ATOM     10 O5   LIG A   1       6.897 -28.555   9.384 +0.00 -0.00    -0.750 OA 
DOCKED: ATOM     11 O6   LIG A   1       7.630 -25.985   9.822 +0.00 -0.00    -0.750 OA 
DOCKED: ATOM     12 O7   LIG A   1      10.142 -25.314   9.956 +0.00 -0.00    -0.750 OA 
DOCKED: ATOM     13 O8   LIG A   1       8.815 -25.254  12.050 +0.00 -0.00    -0.750 OA 
DOCKED: ATOM     14 O9   LIG A   1       9.430 -27.904   9.412 +0.00 -0.00    -0.750 OA 
DOCKED: ATOM     15 O10  LIG A   1       6.451 -26.706   7.518 +0.00 -0.01    -0.750 OA 
DOCKED: ATOM     16 O11  LIG A   1      10.623 -27.292  11.787 +0.00 -0.00    -0.800 OA 
DOCKED: ATOM     17 O12  LIG A   1       6.920 -23.366  12.460 +0.00 -0.00    -0.750 OA 
DOCKED: ATOM     18 O13  LIG A   1       4.448 -24.921   7.854 +0.00 -0.01    -0.800 OA 
DOCKED: ATOM     19 O14  LIG A   1       8.227 -28.621   7.007 +0.00 -0.01    -0.800 OA 
DOCKED: ATOM     20 V6   LIG A   1       8.883 -24.750   8.655 +0.00 +0.01    +1.500 Zn 
DOCKED: ATOM     21 O15  LIG A   1       9.756 -23.461   8.021 +0.00 -0.01    -0.750 OA 
DOCKED: ATOM     22 V7   LIG A   1       9.647 -21.818   9.252 +0.00 +0.01    +1.500 Zn 
DOCKED: ATOM     23 O16  LIG A   1      10.552 -20.781   8.427 +0.00 -0.01    -0.800 OA 
DOCKED: ATOM     24 O17  LIG A   1       7.920 -21.587   8.374 +0.00 -0.01    -0.750 OA 
DOCKED: ATOM     25 V8   LIG A   1       6.670 -22.615   8.984 +0.00 +0.01    +1.500 Zn 
DOCKED: ATOM     26 O18  LIG A   1       8.312 -23.444  10.222 +0.00 -0.00    -0.750 OA 
DOCKED: ATOM     27 O19  LIG A   1      10.899 -22.749  10.252 +0.00 -0.00    -0.750 OA 
DOCKED: ATOM     28 V9   LIG A   1      10.219 -24.003  11.369 +0.00 +0.01    +1.500 Zn 
DOCKED: ATOM     29 V10  LIG A   1       8.080 -21.846  11.881 +0.00 +0.01    +1.500 Zn 
DOCKED: ATOM     30 O20  LIG A   1       9.046 -20.875  10.661 +0.00 -0.00    -0.750 OA 
DOCKED: ATOM     31 O21  LIG A   1       6.511 -21.525  10.632 +0.00 -0.00    -0.750 OA 
DOCKED: ATOM     32 O22  LIG A   1       5.800 -24.116  10.089 +0.00 -0.00    -0.750 OA 
DOCKED: ATOM     33 O23  LIG A   1       9.492 -22.724  12.527 +0.00 -0.00    -0.750 OA 
DOCKED: ATOM     34 O24  LIG A   1      11.494 -24.508  12.190 +0.00 -0.00    -0.800 OA 
DOCKED: ATOM     35 O25  LIG A   1       7.716 -20.809  13.038 +0.00 -0.00    -0.800 OA 
DOCKED: ATOM     36 O26  LIG A   1       7.127 -24.175   7.995 +0.00 -0.01    -0.750 OA 
DOCKED: ATOM     37 O27  LIG A   1       5.320 -22.137   8.258 +0.00 -0.01    -0.800 OA 
DOCKED: ATOM     38 O28  LIG A   1       9.022 -26.063   7.585 +0.00 -0.01    -0.750 OA 
DOCKED: ENDROOT
DOCKED: TORSDOF 0
DOCKED: TER
DOCKED: ENDMDL
________________________________________________________________________________


    FINAL DOCKED STATE:
    ________________________


Run:   18 / 20
Time taken for this run:   0.011s

DOCKED: MODEL        18
DOCKED: USER    Run = 18
DOCKED: USER
DOCKED: USER    Estimated Free Energy of Binding    =  -0.04 kcal/mol  [=(1)+(2)+(3)-(4)]
DOCKED: USER
DOCKED: USER    (1) Final Intermolecular Energy     =  -0.04 kcal/mol
DOCKED: USER        vdW + Hbond + desolv Energy     =  +0.00 kcal/mol
DOCKED: USER        Electrostatic Energy            =  -0.04 kcal/mol
DOCKED: USER        Moving Ligand-Fixed Receptor    =  -0.04 kcal/mol
DOCKED: USER        Moving Ligand-Moving Receptor   =  +0.00 kcal/mol
DOCKED: USER    (2) Final Total Internal Energy     =  +0.00 kcal/mol
DOCKED: USER    (3) Torsional Free Energy           =  +0.00 kcal/mol
DOCKED: USER    (4) Unbound System's Energy         =  +0.00 kcal/mol
DOCKED: USER
DOCKED: USER
DOCKED: USER                              x       y       z     vdW  Elec       q    Type
DOCKED: USER                           _______ _______ _______ _____ _____    ______ ____
DOCKED: ROOT
DOCKED: ATOM      1 V1   LIG A   1      13.485 -27.106  10.613 +0.00 +0.00    +1.500 Zn 
DOCKED: ATOM      2 V2   LIG A   1      11.845 -24.634  11.487 +0.00 +0.00    +1.500 Zn 
DOCKED: ATOM      3 V3   LIG A   1      10.400 -27.230  10.630 +0.00 +0.01    +1.500 Zn 
DOCKED: ATOM      4 V4   LIG A   1      11.956 -27.387   7.935 +0.00 +0.01    +1.500 Zn 
DOCKED: ATOM      5 V5   LIG A   1      13.474 -24.792   8.607 +0.00 +0.01    +1.500 Zn 
DOCKED: ATOM      6 O1   LIG A   1      14.576 -27.990  11.387 +0.00 -0.00    -0.800 OA 
DOCKED: ATOM      7 O2   LIG A   1      13.062 -25.766  11.965 +0.00 -0.00    -0.750 OA 
DOCKED: ATOM      8 O3   LIG A   1      11.753 -27.967  11.303 +0.00 -0.00    -0.750 OA 
DOCKED: ATOM      9 O4   LIG A   1      13.136 -28.117   9.099 +0.00 -0.00    -0.750 OA 
DOCKED: ATOM     10 O5   LIG A   1      14.451 -25.879   9.716 +0.00 -0.00    -0.750 OA 
DOCKED: ATOM     11 O6   LIG A   1      11.744 -25.901   9.671 +0.00 -0.00    -0.750 OA 
DOCKED: ATOM     12 O7   LIG A   1      10.376 -23.785  10.324 +0.00 -0.00    -0.750 OA 
DOCKED: ATOM     13 O8   LIG A   1      10.330 -25.717  11.878 +0.00 -0.00    -0.750 OA 
DOCKED: ATOM     14 O9   LIG A   1      13.115 -23.703  10.283 +0.00 -0.00    -0.750 OA 
DOCKED: ATOM     15 O10  LIG A   1      13.158 -26.058   7.392 +0.00 -0.01    -0.750 OA 
DOCKED: ATOM     16 O11  LIG A   1      11.787 -23.535  12.658 +0.00 -0.00    -0.800 OA 
DOCKED: ATOM     17 O12  LIG A   1       9.014 -27.997  11.248 +0.00 -0.00    -0.750 OA 
DOCKED: ATOM     18 O13  LIG A   1      11.983 -28.389   6.690 +0.00 -0.01    -0.800 OA 
DOCKED: ATOM     19 O14  LIG A   1      14.551 -23.848   7.902 +0.00 -0.01    -0.800 OA 
DOCKED: ATOM     20 V6   LIG A   1      10.428 -24.624   8.626 +0.00 +0.01    +1.500 Zn 
DOCKED: ATOM     21 O15  LIG A   1       9.075 -23.886   7.953 +0.00 -0.01    -0.750 OA 
DOCKED: ATOM     22 V7   LIG A   1       7.342 -24.749   8.644 +0.00 +0.01    +1.500 Zn 
DOCKED: ATOM     23 O16  LIG A   1       6.252 -23.863   7.869 +0.00 -0.01    -0.800 OA 
DOCKED: ATOM     24 O17  LIG A   1       7.765 -26.088   7.291 +0.00 -0.01    -0.750 OA 
DOCKED: ATOM     25 V8   LIG A   1       8.983 -27.220   7.769 +0.00 +0.01    +1.500 Zn 
DOCKED: ATOM     26 O18  LIG A   1       9.084 -25.952   9.585 +0.00 -0.00    -0.750 OA 
DOCKED: ATOM     27 O19  LIG A   1       7.692 -23.737  10.157 +0.00 -0.00    -0.750 OA 
DOCKED: ATOM     28 V9   LIG A   1       8.872 -24.467  11.321 +0.00 +0.01    +1.500 Zn 
DOCKED: ATOM     29 V10  LIG A   1       7.354 -27.062  10.649 +0.00 +0.01    +1.500 Zn 
DOCKED: ATOM     30 O20  LIG A   1       6.377 -25.974   9.540 +0.00 -0.00    -0.750 OA 
DOCKED: ATOM     31 O21  LIG A   1       7.712 -28.151   8.973 +0.00 -0.00    -0.750 OA 
DOCKED: ATOM     32 O22  LIG A   1      10.451 -28.069   8.931 +0.00 -0.00    -0.750 OA 
DOCKED: ATOM     33 O23  LIG A   1       7.670 -25.795  11.864 +0.00 -0.00    -0.750 OA 
DOCKED: ATOM     34 O24  LIG A   1       8.844 -23.465  12.565 +0.00 -0.00    -0.800 OA 
DOCKED: ATOM     35 O25  LIG A   1       6.277 -28.005  11.354 +0.00 -0.00    -0.800 OA 
DOCKED: ATOM     36 O26  LIG A   1      10.498 -26.137   7.378 +0.00 -0.01    -0.750 OA 
DOCKED: ATOM     37 O27  LIG A   1       9.041 -28.318   6.598 +0.00 -0.01    -0.800 OA 
DOCKED: ATOM     38 O28  LIG A   1      11.813 -23.858   8.008 +0.00 -0.01    -0.750 OA 
DOCKED: ENDROOT
DOCKED: TORSDOF 0
DOCKED: TER
DOCKED: ENDMDL
________________________________________________________________________________


    FINAL DOCKED STATE:
    ________________________


Run:   19 / 20
Time taken for this run:   0.011s

DOCKED: MODEL        19
DOCKED: USER    Run = 19
DOCKED: USER
DOCKED: USER    Estimated Free Energy of Binding    =  -0.04 kcal/mol  [=(1)+(2)+(3)-(4)]
DOCKED: USER
DOCKED: USER    (1) Final Intermolecular Energy     =  -0.04 kcal/mol
DOCKED: USER        vdW + Hbond + desolv Energy     =  +0.00 kcal/mol
DOCKED: USER        Electrostatic Energy            =  -0.04 kcal/mol
DOCKED: USER        Moving Ligand-Fixed Receptor    =  -0.04 kcal/mol
DOCKED: USER        Moving Ligand-Moving Receptor   =  +0.00 kcal/mol
DOCKED: USER    (2) Final Total Internal Energy     =  +0.00 kcal/mol
DOCKED: USER    (3) Torsional Free Energy           =  +0.00 kcal/mol
DOCKED: USER    (4) Unbound System's Energy         =  +0.00 kcal/mol
DOCKED: USER
DOCKED: USER
DOCKED: USER                              x       y       z     vdW  Elec       q    Type
DOCKED: USER                           _______ _______ _______ _____ _____    ______ ____
DOCKED: ROOT
DOCKED: ATOM      1 V1   LIG A   1       0.982 -23.337 -10.984 +0.00 +0.01    +1.500 Zn 
DOCKED: ATOM      2 V2   LIG A   1       2.401 -21.466  -8.972 +0.00 +0.01    +1.500 Zn 
DOCKED: ATOM      3 V3   LIG A   1       3.872 -22.395 -11.528 +0.00 +0.01    +1.500 Zn 
DOCKED: ATOM      4 V4   LIG A   1       3.290 -25.402 -10.953 +0.00 +0.01    +1.500 Zn 
DOCKED: ATOM      5 V5   LIG A   1       1.811 -24.666  -8.352 +0.00 +0.01    +1.500 Zn 
DOCKED: ATOM      6 O1   LIG A   1      -0.360 -23.158 -11.843 +0.00 -0.00    -0.800 OA 
DOCKED: ATOM      7 O2   LIG A   1       1.021 -21.655  -9.998 +0.00 -0.00    -0.750 OA 
DOCKED: ATOM      8 O3   LIG A   1       2.326 -22.358 -12.189 +0.00 -0.00    -0.750 OA 
DOCKED: ATOM      9 O4   LIG A   1       1.745 -24.855 -11.725 +0.00 -0.00    -0.750 OA 
DOCKED: ATOM     10 O5   LIG A   1       0.452 -24.188  -9.489 +0.00 -0.00    -0.750 OA 
DOCKED: ATOM     11 O6   LIG A   1       3.013 -23.397  -9.870 +0.00 -0.00    -0.750 OA 
DOCKED: ATOM     12 O7   LIG A   1       4.225 -21.894  -8.124 +0.00 -0.01    -0.750 OA 
DOCKED: ATOM     13 O8   LIG A   1       3.625 -20.879 -10.305 +0.00 -0.00    -0.750 OA 
DOCKED: ATOM     14 O9   LIG A   1       1.666 -22.761  -7.663 +0.00 -0.01    -0.750 OA 
DOCKED: ATOM     15 O10  LIG A   1       2.426 -25.975  -9.394 +0.00 -0.00    -0.750 OA 
DOCKED: ATOM     16 O11  LIG A   1       2.141 -20.118  -8.136 +0.00 -0.01    -0.800 OA 
DOCKED: ATOM     17 O12  LIG A   1       4.920 -21.568 -12.580 +0.00 -0.00    -0.750 OA 
DOCKED: ATOM     18 O13  LIG A   1       3.609 -26.786 -11.686 +0.00 -0.00    -0.800 OA 
DOCKED: ATOM     19 O14  LIG A   1       1.093 -25.437  -7.154 +0.00 -0.01    -0.800 OA 
DOCKED: ATOM     20 V6   LIG A   1       4.683 -23.669  -8.608 +0.00 +0.01    +1.500 Zn 
DOCKED: ATOM     21 O15  LIG A   1       6.228 -23.705  -7.946 +0.00 -0.01    -0.750 OA 
DOCKED: ATOM     22 V7   LIG A   1       7.573 -22.726  -9.152 +0.00 +0.01    +1.500 Zn 
DOCKED: ATOM     23 O16  LIG A   1       8.915 -22.906  -8.292 +0.00 -0.01    -0.800 OA 
DOCKED: ATOM     24 O17  LIG A   1       7.533 -24.409 -10.138 +0.00 -0.00    -0.750 OA 
DOCKED: ATOM     25 V8   LIG A   1       6.154 -24.598 -11.164 +0.00 +0.01    +1.500 Zn 
DOCKED: ATOM     26 O18  LIG A   1       5.541 -22.666 -10.265 +0.00 -0.00    -0.750 OA 
DOCKED: ATOM     27 O19  LIG A   1       6.810 -21.208  -8.411 +0.00 -0.01    -0.750 OA 
DOCKED: ATOM     28 V9   LIG A   1       5.265 -20.662  -9.183 +0.00 +0.01    +1.500 Zn 
DOCKED: ATOM     29 V10  LIG A   1       6.744 -21.398 -11.784 +0.00 +0.01    +1.500 Zn 
DOCKED: ATOM     30 O20  LIG A   1       8.102 -21.875 -10.647 +0.00 -0.00    -0.750 OA 
DOCKED: ATOM     31 O21  LIG A   1       6.889 -23.303 -12.473 +0.00 -0.00    -0.750 OA 
DOCKED: ATOM     32 O22  LIG A   1       4.330 -24.169 -12.012 +0.00 -0.00    -0.750 OA 
DOCKED: ATOM     33 O23  LIG A   1       6.128 -20.088 -10.741 +0.00 -0.00    -0.750 OA 
DOCKED: ATOM     34 O24  LIG A   1       4.946 -19.278  -8.450 +0.00 -0.01    -0.800 OA 
DOCKED: ATOM     35 O25  LIG A   1       7.461 -20.626 -12.981 +0.00 -0.00    -0.800 OA 
DOCKED: ATOM     36 O26  LIG A   1       4.930 -25.184  -9.830 +0.00 -0.00    -0.750 OA 
DOCKED: ATOM     37 O27  LIG A   1       6.414 -25.945 -12.000 +0.00 -0.00    -0.800 OA 
DOCKED: ATOM     38 O28  LIG A   1       3.635 -24.495  -7.556 +0.00 -0.01    -0.750 OA 
DOCKED: ENDROOT
DOCKED: TORSDOF 0
DOCKED: TER
DOCKED: ENDMDL
________________________________________________________________________________


    FINAL DOCKED STATE:
    ________________________


Run:   20 / 20
Time taken for this run:   0.011s

DOCKED: MODEL        20
DOCKED: USER    Run = 20
DOCKED: USER
DOCKED: USER    Estimated Free Energy of Binding    =  -0.04 kcal/mol  [=(1)+(2)+(3)-(4)]
DOCKED: USER
DOCKED: USER    (1) Final Intermolecular Energy     =  -0.04 kcal/mol
DOCKED: USER        vdW + Hbond + desolv Energy     =  +0.00 kcal/mol
DOCKED: USER        Electrostatic Energy            =  -0.04 kcal/mol
DOCKED: USER        Moving Ligand-Fixed Receptor    =  -0.04 kcal/mol
DOCKED: USER        Moving Ligand-Moving Receptor   =  +0.00 kcal/mol
DOCKED: USER    (2) Final Total Internal Energy     =  +0.00 kcal/mol
DOCKED: USER    (3) Torsional Free Energy           =  +0.00 kcal/mol
DOCKED: USER    (4) Unbound System's Energy         =  +0.00 kcal/mol
DOCKED: USER
DOCKED: USER
DOCKED: USER                              x       y       z     vdW  Elec       q    Type
DOCKED: USER                           _______ _______ _______ _____ _____    ______ ____
DOCKED: ROOT
DOCKED: ATOM      1 V1   LIG A   1       8.824 -27.548   7.907 +0.00 +0.01    +1.500 Zn 
DOCKED: ATOM      2 V2   LIG A   1       7.013 -27.491  10.413 +0.00 +0.01    +1.500 Zn 
DOCKED: ATOM      3 V3   LIG A   1       7.005 -25.111   8.438 +0.00 +0.01    +1.500 Zn 
DOCKED: ATOM      4 V4   LIG A   1      10.103 -24.805   8.558 +0.00 +0.01    +1.500 Zn 
DOCKED: ATOM      5 V5   LIG A   1      10.303 -27.140  10.557 +0.00 +0.01    +1.500 Zn 
DOCKED: ATOM      6 O1   LIG A   1       8.890 -28.558   6.662 +0.00 -0.01    -0.800 OA 
DOCKED: ATOM      7 O2   LIG A   1       7.407 -28.362   8.971 +0.00 -0.00    -0.750 OA 
DOCKED: ATOM      8 O3   LIG A   1       7.299 -26.313   7.300 +0.00 -0.01    -0.750 OA 
DOCKED: ATOM      9 O4   LIG A   1       9.899 -26.143   7.354 +0.00 -0.01    -0.750 OA 
DOCKED: ATOM     10 O5   LIG A   1      10.045 -28.182   9.069 +0.00 -0.00    -0.750 OA 
DOCKED: ATOM     11 O6   LIG A   1       8.492 -26.037   9.631 +0.00 -0.00    -0.750 OA 
DOCKED: ATOM     12 O7   LIG A   1       7.040 -25.964  11.790 +0.00 -0.00    -0.750 OA 
DOCKED: ATOM     13 O8   LIG A   1       5.869 -26.195   9.616 +0.00 -0.00    -0.750 OA 
DOCKED: ATOM     14 O9   LIG A   1       8.677 -28.105  11.297 +0.00 -0.00    -0.750 OA 
DOCKED: ATOM     15 O10  LIG A   1      11.171 -25.848   9.688 +0.00 -0.00    -0.750 OA 
DOCKED: ATOM     16 O11  LIG A   1       5.970 -28.417  11.211 +0.00 -0.00    -0.800 OA 
DOCKED: ATOM     17 O12  LIG A   1       5.736 -24.136   7.865 +0.00 -0.01    -0.750 OA 
DOCKED: ATOM     18 O13  LIG A   1      11.182 -23.844   7.874 +0.00 -0.01    -0.800 OA 
DOCKED: ATOM     19 O14  LIG A   1      11.451 -27.881  11.383 +0.00 -0.00    -0.800 OA 
DOCKED: ATOM     20 V6   LIG A   1       8.489 -24.822  11.358 +0.00 +0.01    +1.500 Zn 
DOCKED: ATOM     21 O15  LIG A   1       8.195 -23.620  12.496 +0.00 -0.00    -0.750 OA 
DOCKED: ATOM     22 V7   LIG A   1       6.669 -22.385  11.889 +0.00 +0.01    +1.500 Zn 
DOCKED: ATOM     23 O16  LIG A   1       6.603 -21.376  13.134 +0.00 -0.00    -0.800 OA 
DOCKED: ATOM     24 O17  LIG A   1       8.087 -21.571  10.824 +0.00 -0.00    -0.750 OA 
DOCKED: ATOM     25 V8   LIG A   1       8.481 -22.442   9.383 +0.00 +0.01    +1.500 Zn 
DOCKED: ATOM     26 O18  LIG A   1       7.002 -23.897  10.166 +0.00 -0.00    -0.750 OA 
DOCKED: ATOM     27 O19  LIG A   1       5.595 -23.790  12.442 +0.00 -0.00    -0.750 OA 
DOCKED: ATOM     28 V9   LIG A   1       5.391 -25.128  11.238 +0.00 +0.01    +1.500 Zn 
DOCKED: ATOM     29 V10  LIG A   1       5.191 -22.792   9.239 +0.00 +0.01    +1.500 Zn 
DOCKED: ATOM     30 O20  LIG A   1       5.449 -21.752  10.728 +0.00 -0.00    -0.750 OA 
DOCKED: ATOM     31 O21  LIG A   1       6.817 -21.828   8.499 +0.00 -0.01    -0.750 OA 
DOCKED: ATOM     32 O22  LIG A   1       8.454 -23.969   8.006 +0.00 -0.01    -0.750 OA 
DOCKED: ATOM     33 O23  LIG A   1       4.323 -24.086  10.108 +0.00 -0.00    -0.750 OA 
DOCKED: ATOM     34 O24  LIG A   1       4.312 -26.089  11.922 +0.00 -0.00    -0.800 OA 
DOCKED: ATOM     35 O25  LIG A   1       4.043 -22.053   8.413 +0.00 -0.01    -0.800 OA 
DOCKED: ATOM     36 O26  LIG A   1       9.625 -23.738  10.180 +0.00 -0.00    -0.750 OA 
DOCKED: ATOM     37 O27  LIG A   1       9.523 -21.516   8.586 +0.00 -0.01    -0.800 OA 
DOCKED: ATOM     38 O28  LIG A   1       9.757 -25.797  11.931 +0.00 -0.00    -0.750 OA 
DOCKED: ENDROOT
DOCKED: TORSDOF 0
DOCKED: TER
DOCKED: ENDMDL
________________________________________________________________________________


    CLUSTERING HISTOGRAM
    ____________________


________________________________________________________________________________
     |           |     |           |     |
Clus | Lowest    | Run | Mean      | Num | Histogram
-ter | Binding   |     | Binding   | in  |
Rank | Energy    |     | Energy    | Clus|    5    10   15   20   25   30   35
_____|___________|_____|___________|_____|____:____|____:____|____:____|____:___
   1 |     -0.04 |  15 |     -0.04 |  10 |##########
   2 |     -0.04 |  18 |     -0.04 |   3 |###
   3 |     -0.04 |  19 |     -0.04 |   4 |####
   4 |     -0.04 |  11 |     -0.04 |   2 |##
   5 |     -0.03 |   9 |     -0.03 |   1 |#
_____|___________|_____|___________|_____|______________________________________


    RMSD TABLE
    __________


_______________________________________________________________________
     |      |      |           |         |                 |
Rank | Sub- | Run  | Binding   | Cluster | Reference       | Grep
     | Rank |      | Energy    | RMSD    | RMSD            | Pattern
_____|______|______|___________|_________|_________________|___________
   1      1     15       -0.04      0.00     28.57           RANKING
   1      2     20       -0.04      1.55     29.15           RANKING
   1      3      8       -0.04      1.41     28.42           RANKING
   1      4     14       -0.04      1.41     28.26           RANKING
   1      5      3       -0.04      1.48     29.24           RANKING
   1      6      7       -0.04      1.47     29.58           RANKING
   1      7     17       -0.04      1.52     29.00           RANKING
   1      8      2       -0.04      1.32     28.98           RANKING
   1      9      4       -0.04      1.66     27.47           RANKING
   1     10     13       -0.04      1.54     29.85           RANKING
   2      1     18       -0.04      0.00     30.49           RANKING
   2      2      5       -0.04      1.35     29.86           RANKING
   2      3     16       -0.04      1.66     29.26           RANKING
   3      1     19       -0.04      0.00     27.72           RANKING
   3      2     12       -0.04      1.51     28.73           RANKING
   3      3      1       -0.04      1.39     28.39           RANKING
   3      4      6       -0.04      1.47     27.52           RANKING
   4      1     11       -0.04      0.00     30.84           RANKING
   4      2     10       -0.04      1.77     32.12           RANKING
   5      1      9       -0.03      0.00     28.05           RANKING

Run time 0.234 sec
Idle time 0.405 sec
