AutoDock-GPU version: v1.6|Release|x64

**********************************************************
**    AutoDock-GPU AUTODOCKTOOLS-COMPATIBLE DLG FILE    **
**********************************************************


    DOCKING PARAMETERS
    ________________________


Ligand file:                               O20V10.pdbqt
Grid fld file:                             Hidrogel3_mellitic.maps.fld

Random seed:                               1782270811, 67660
Number of runs:                            20
Number of energy evaluations:              1132076
Number of generations:                     42000
Size of population:                        150
Rate of crossover:                         80.000000%
Tournament selection probability limit:    60.000000%
Rate of mutation:                          2.000000%
Maximal allowed delta movement:            +/- 6.000000A
Maximal allowed delta angle:               +/- 90.000000

Rate of local search:                      100.000000%
Maximal number of local search iterations: 300
Rho lower bound:                           0.010000
Spread of local search delta movement:     2.000000A
Spread of local search delta angle:        74.999999
Limit of consecutive successes/failures:   4

Handle symmetry during clustering:         YES
RMSD tolerance:                            2.000000A

Program call in command line was:          D:\Programas\AutoDock-GPU.exe -M Hidrogel3_mellitic.maps.fld -L O20V10.pdbqt --nrun 20 --resnam O20V10_V --derivtype V=Zn 


    GRID PARAMETERS
    ________________________


Receptor name:                             Hidrogel3_mellitic
Number of grid points (x, y, z):           53, 53, 53
Grid center (x, y, z):                     0.010000, 0.030000, 0.060000A
Grid size (x, y, z):                       19.500000, 19.500000, 19.500000A
Grid spacing:                              0.375000A


    LIGAND PARAMETERS
    ________________________


Ligand name:                               O20V10
Number of atoms:                           38
Number of rotatable bonds:                 0
Number of atom types:                      2


    DUMMY DATA (only for ADT-compatibility)
    ________________________


DPF> outlev 1
DPF> ga_run 20
DPF> fld Hidrogel3_mellitic.maps.fld
DPF> move O20V10.pdbqt


    COUNTER STATES
    ________________________


Number of energy evaluations performed:    363135
Number of generations used:                60


    INPUT LIGAND PDBQT FILE:
    ________________________


INPUT-LIGAND-PDBQT: ROOT
INPUT-LIGAND-PDBQT: ATOM      1 V1   LIG A   1       2.120   5.955  -3.319  1.00  0.00    +1.500 Zn
INPUT-LIGAND-PDBQT: ATOM      2 V2   LIG A   1       3.966   4.593  -1.245  1.00  0.00    +1.500 Zn
INPUT-LIGAND-PDBQT: ATOM      3 V3   LIG A   1       0.901   4.221  -1.074  1.00  0.00    +1.500 Zn
INPUT-LIGAND-PDBQT: ATOM      4 V4   LIG A   1       0.372   7.291  -1.140  1.00  0.00    +1.500 Zn
INPUT-LIGAND-PDBQT: ATOM      5 V5   LIG A   1       3.397   7.856  -1.286  1.00  0.00    +1.500 Zn
INPUT-LIGAND-PDBQT: ATOM      6 O1   LIG A   1       2.029   5.823  -4.915  1.00  0.00    -0.800 OA
INPUT-LIGAND-PDBQT: ATOM      7 O2   LIG A   1       3.602   4.749  -2.929  1.00  0.00    -0.750 OA
INPUT-LIGAND-PDBQT: ATOM      8 O3   LIG A   1       0.995   4.334  -2.749  1.00  0.00    -0.750 OA
INPUT-LIGAND-PDBQT: ATOM      9 O4   LIG A   1       0.584   6.903  -2.897  1.00  0.00    -0.750 OA
INPUT-LIGAND-PDBQT: ATOM     10 O5   LIG A   1       3.208   7.363  -3.043  1.00  0.00    -0.750 OA
INPUT-LIGAND-PDBQT: ATOM     11 O6   LIG A   1       2.192   5.900  -1.004  1.00  0.00    -0.750 OA
INPUT-LIGAND-PDBQT: ATOM     12 O7   LIG A   1       3.752   4.833   0.786  1.00  0.00    -0.750 OA
INPUT-LIGAND-PDBQT: ATOM     13 O8   LIG A   1       2.623   3.315  -0.817  1.00  0.00    -0.750 OA
INPUT-LIGAND-PDBQT: ATOM     14 O9   LIG A   1       4.801   6.391  -1.210  1.00  0.00    -0.750 OA
INPUT-LIGAND-PDBQT: ATOM     15 O10  LIG A   1       1.760   8.548  -1.146  1.00  0.00    -0.750 OA
INPUT-LIGAND-PDBQT: ATOM     16 O11  LIG A   1       5.308   3.712  -1.169  1.00  0.00    -0.800 OA
INPUT-LIGAND-PDBQT: ATOM     17 O12  LIG A   1      -0.042   2.861  -0.685  1.00  0.00    -0.750 OA
INPUT-LIGAND-PDBQT: ATOM     18 O13  LIG A   1      -0.924   8.226  -1.114  1.00  0.00    -0.800 OA
INPUT-LIGAND-PDBQT: ATOM     19 O14  LIG A   1       4.350   9.136  -1.318  1.00  0.00    -0.800 OA
INPUT-LIGAND-PDBQT: ATOM     20 V6   LIG A   1       2.444   6.174   1.074  1.00  0.00    +1.500 Zn
INPUT-LIGAND-PDBQT: ATOM     21 O15  LIG A   1       2.351   6.061   2.749  1.00  0.00    -0.750 OA
INPUT-LIGAND-PDBQT: ATOM     22 V7   LIG A   1       1.225   4.439   3.319  1.00  0.00    +1.500 Zn
INPUT-LIGAND-PDBQT: ATOM     23 O16  LIG A   1       1.317   4.572   4.915  1.00  0.00    -0.800 OA
INPUT-LIGAND-PDBQT: ATOM     24 O17  LIG A   1      -0.257   5.646   2.929  1.00  0.00    -0.750 OA
INPUT-LIGAND-PDBQT: ATOM     25 V8   LIG A   1      -0.621   5.802   1.245  1.00  0.00    +1.500 Zn
INPUT-LIGAND-PDBQT: ATOM     26 O18  LIG A   1       1.154   4.495   1.004  1.00  0.00    -0.750 OA
INPUT-LIGAND-PDBQT: ATOM     27 O19  LIG A   1       2.761   3.492   2.897  1.00  0.00    -0.750 OA
INPUT-LIGAND-PDBQT: ATOM     28 V9   LIG A   1       2.973   3.104   1.140  1.00  0.00    +1.500 Zn
INPUT-LIGAND-PDBQT: ATOM     29 V10  LIG A   1      -0.052   2.539   1.286  1.00  0.00    +1.500 Zn
INPUT-LIGAND-PDBQT: ATOM     30 O20  LIG A   1       0.138   3.032   3.043  1.00  0.00    -0.750 OA
INPUT-LIGAND-PDBQT: ATOM     31 O21  LIG A   1      -1.456   4.004   1.210  1.00  0.00    -0.750 OA
INPUT-LIGAND-PDBQT: ATOM     32 O22  LIG A   1      -0.407   5.562  -0.786  1.00  0.00    -0.750 OA
INPUT-LIGAND-PDBQT: ATOM     33 O23  LIG A   1       1.586   1.847   1.146  1.00  0.00    -0.750 OA
INPUT-LIGAND-PDBQT: ATOM     34 O24  LIG A   1       4.269   2.169   1.114  1.00  0.00    -0.800 OA
INPUT-LIGAND-PDBQT: ATOM     35 O25  LIG A   1      -1.004   1.259   1.318  1.00  0.00    -0.800 OA
INPUT-LIGAND-PDBQT: ATOM     36 O26  LIG A   1       0.722   7.080   0.817  1.00  0.00    -0.750 OA
INPUT-LIGAND-PDBQT: ATOM     37 O27  LIG A   1      -1.962   6.682   1.169  1.00  0.00    -0.800 OA
INPUT-LIGAND-PDBQT: ATOM     38 O28  LIG A   1       3.387   7.533   0.685  1.00  0.00    -0.750 OA
INPUT-LIGAND-PDBQT: ENDROOT
INPUT-LIGAND-PDBQT: TORSDOF 0


    FINAL DOCKED STATE:
    ________________________


Run:   1 / 20
Time taken for this run:   0.013s

DOCKED: MODEL        1
DOCKED: USER    Run = 1
DOCKED: USER
DOCKED: USER    Estimated Free Energy of Binding    =  +0.27 kcal/mol  [=(1)+(2)+(3)-(4)]
DOCKED: USER
DOCKED: USER    (1) Final Intermolecular Energy     =  +0.27 kcal/mol
DOCKED: USER        vdW + Hbond + desolv Energy     =  +0.27 kcal/mol
DOCKED: USER        Electrostatic Energy            =  +0.01 kcal/mol
DOCKED: USER        Moving Ligand-Fixed Receptor    =  +0.27 kcal/mol
DOCKED: USER        Moving Ligand-Moving Receptor   =  +0.00 kcal/mol
DOCKED: USER    (2) Final Total Internal Energy     =  +0.00 kcal/mol
DOCKED: USER    (3) Torsional Free Energy           =  +0.00 kcal/mol
DOCKED: USER    (4) Unbound System's Energy         =  +0.00 kcal/mol
DOCKED: USER
DOCKED: USER
DOCKED: USER                              x       y       z     vdW  Elec       q    Type
DOCKED: USER                           _______ _______ _______ _____ _____    ______ ____
DOCKED: ROOT
DOCKED: ATOM      1 V1   LIG A   1      -3.692   8.561  -8.568 +0.00 +0.00    +1.500 Zn 
DOCKED: ATOM      2 V2   LIG A   1      -5.972   6.471  -8.618 +0.00 +0.00    +1.500 Zn 
DOCKED: ATOM      3 V3   LIG A   1      -6.000   8.747  -6.525 +0.00 +0.00    +1.500 Zn 
DOCKED: ATOM      4 V4   LIG A   1      -3.107   8.103  -5.562 +0.00 -0.00    +1.500 Zn 
DOCKED: ATOM      5 V5   LIG A   1      -2.908   5.775  -7.569 +0.00 +0.00    +1.500 Zn 
DOCKED: ATOM      6 O1   LIG A   1      -3.179   9.606  -9.672 +0.00 -0.00    -0.800 OA 
DOCKED: ATOM      7 O2   LIG A   1      -5.128   7.667  -9.540 +0.00 -0.00    -0.750 OA 
DOCKED: ATOM      8 O3   LIG A   1      -5.255   9.617  -7.756 +0.00 -0.00    -0.750 OA 
DOCKED: ATOM      9 O4   LIG A   1      -2.802   9.110  -7.038 +0.00 +0.00    -0.750 OA 
DOCKED: ATOM     10 O5   LIG A   1      -2.649   7.111  -8.799 +0.00 -0.00    -0.750 OA 
DOCKED: ATOM     11 O6   LIG A   1      -4.654   7.175  -6.980 +0.00 -0.00    -0.750 OA 
DOCKED: ATOM     12 O7   LIG A   1      -6.518   5.358  -6.977 +0.00 +0.00    -0.750 OA 
DOCKED: ATOM     13 O8   LIG A   1      -7.139   7.651  -7.688 +0.00 -0.00    -0.750 OA 
DOCKED: ATOM     14 O9   LIG A   1      -4.447   5.212  -8.767 +0.00 -0.00    -0.750 OA 
DOCKED: ATOM     15 O10  LIG A   1      -2.129   6.651  -6.226 +0.00 +0.00    -0.750 OA 
DOCKED: ATOM     16 O11  LIG A   1      -6.971   5.750  -9.650 +0.00 +0.00    -0.800 OA 
DOCKED: ATOM     17 O12  LIG A   1      -7.276   9.685  -5.908 +0.00 -0.00    -0.750 OA 
DOCKED: ATOM     18 O13  LIG A   1      -2.104   8.712  -4.477 +0.00 +0.00    -0.800 OA 
DOCKED: ATOM     19 O14  LIG A   1      -1.845   4.648  -7.956 +0.00 -0.00    -0.800 OA 
DOCKED: ATOM     20 V6   LIG A   1      -5.245   5.681  -5.611 +0.03 -0.00    +1.500 Zn 
DOCKED: ATOM     21 O15  LIG A   1      -5.990   4.810  -4.380 +0.04 +0.00    -0.750 OA 
DOCKED: ATOM     22 V7   LIG A   1      -7.553   5.868  -3.568 +0.07 -0.00    +1.500 Zn 
DOCKED: ATOM     23 O16  LIG A   1      -8.065   4.822  -2.465 +0.04 +0.00    -0.800 OA 
DOCKED: ATOM     24 O17  LIG A   1      -6.117   6.761  -2.596 +0.02 +0.00    -0.750 OA 
DOCKED: ATOM     25 V8   LIG A   1      -5.273   7.957  -3.518 +0.00 +0.00    +1.500 Zn 
DOCKED: ATOM     26 O18  LIG A   1      -6.591   7.253  -5.156 +0.00 +0.00    -0.750 OA 
DOCKED: ATOM     27 O19  LIG A   1      -8.442   5.319  -5.098 +0.02 +0.00    -0.750 OA 
DOCKED: ATOM     28 V9   LIG A   1      -8.138   6.325  -6.574 +0.00 -0.00    +1.500 Zn 
DOCKED: ATOM     29 V10  LIG A   1      -8.337   8.654  -4.567 +0.00 +0.00    +1.500 Zn 
DOCKED: ATOM     30 O20  LIG A   1      -8.596   7.316  -3.338 +0.01 -0.00    -0.750 OA 
DOCKED: ATOM     31 O21  LIG A   1      -6.797   9.216  -3.369 +0.00 -0.00    -0.750 OA 
DOCKED: ATOM     32 O22  LIG A   1      -4.727   9.070  -5.158 +0.00 +0.00    -0.750 OA 
DOCKED: ATOM     33 O23  LIG A   1      -9.116   7.776  -5.910 +0.00 -0.00    -0.750 OA 
DOCKED: ATOM     34 O24  LIG A   1      -9.141   5.716  -7.659 +0.00 +0.00    -0.800 OA 
DOCKED: ATOM     35 O25  LIG A   1      -9.400   9.779  -4.181 +0.00 -0.00    -0.800 OA 
DOCKED: ATOM     36 O26  LIG A   1      -4.106   6.777  -4.448 +0.01 -0.00    -0.750 OA 
DOCKED: ATOM     37 O27  LIG A   1      -4.275   8.678  -2.487 +0.00 +0.00    -0.800 OA 
DOCKED: ATOM     38 O28  LIG A   1      -3.969   4.743  -6.228 +0.01 -0.00    -0.750 OA 
DOCKED: ENDROOT
DOCKED: TORSDOF 0
DOCKED: TER
DOCKED: ENDMDL
________________________________________________________________________________


    FINAL DOCKED STATE:
    ________________________


Run:   2 / 20
Time taken for this run:   0.013s

DOCKED: MODEL        2
DOCKED: USER    Run = 2
DOCKED: USER
DOCKED: USER    Estimated Free Energy of Binding    =  -0.21 kcal/mol  [=(1)+(2)+(3)-(4)]
DOCKED: USER
DOCKED: USER    (1) Final Intermolecular Energy     =  -0.21 kcal/mol
DOCKED: USER        vdW + Hbond + desolv Energy     =  +0.07 kcal/mol
DOCKED: USER        Electrostatic Energy            =  -0.27 kcal/mol
DOCKED: USER        Moving Ligand-Fixed Receptor    =  -0.21 kcal/mol
DOCKED: USER        Moving Ligand-Moving Receptor   =  +0.00 kcal/mol
DOCKED: USER    (2) Final Total Internal Energy     =  +0.00 kcal/mol
DOCKED: USER    (3) Torsional Free Energy           =  +0.00 kcal/mol
DOCKED: USER    (4) Unbound System's Energy         =  +0.00 kcal/mol
DOCKED: USER
DOCKED: USER
DOCKED: USER                              x       y       z     vdW  Elec       q    Type
DOCKED: USER                           _______ _______ _______ _____ _____    ______ ____
DOCKED: ROOT
DOCKED: ATOM      1 V1   LIG A   1       8.608  -5.817  -7.672 +0.02 +0.01    +1.500 Zn 
DOCKED: ATOM      2 V2   LIG A   1       6.873  -8.338  -8.114 +0.00 +0.01    +1.500 Zn 
DOCKED: ATOM      3 V3   LIG A   1       5.531  -5.576  -7.751 +0.03 +0.01    +1.500 Zn 
DOCKED: ATOM      4 V4   LIG A   1       7.077  -5.004  -5.106 +0.12 +0.09    +1.500 Zn 
DOCKED: ATOM      5 V5   LIG A   1       8.491  -7.735  -5.288 +0.02 +0.02    +1.500 Zn 
DOCKED: ATOM      6 O1   LIG A   1       9.739  -5.128  -8.578 +0.00 -0.00    -0.800 OA 
DOCKED: ATOM      7 O2   LIG A   1       8.139  -7.358  -8.770 +0.00 -0.00    -0.750 OA 
DOCKED: ATOM      8 O3   LIG A   1       6.917  -5.024  -8.526 +0.01 -0.00    -0.750 OA 
DOCKED: ATOM      9 O4   LIG A   1       8.293  -4.539  -6.367 +0.02 -0.02    -0.750 OA 
DOCKED: ATOM     10 O5   LIG A   1       9.518  -6.901  -6.559 +0.00 -0.01    -0.750 OA 
DOCKED: ATOM     11 O6   LIG A   1       6.814  -6.765  -6.554 +0.01 -0.01    -0.750 OA 
DOCKED: ATOM     12 O7   LIG A   1       5.365  -8.908  -6.838 +0.00 -0.00    -0.750 OA 
DOCKED: ATOM     13 O8   LIG A   1       5.406  -7.283  -8.711 +0.00 -0.00    -0.750 OA 
DOCKED: ATOM     14 O9   LIG A   1       8.098  -9.090  -6.748 +0.00 -0.00    -0.750 OA 
DOCKED: ATOM     15 O10  LIG A   1       8.221  -6.261  -4.321 +0.02 -0.03    -0.750 OA 
DOCKED: ATOM     16 O11  LIG A   1       6.777  -9.625  -9.073 +0.00 -0.00    -0.800 OA 
DOCKED: ATOM     17 O12  LIG A   1       4.182  -4.878  -8.513 +0.01 -0.00    -0.750 OA 
DOCKED: ATOM     18 O13  LIG A   1       7.139  -3.798  -4.060 -0.59 -0.31    -0.800 OA 
DOCKED: ATOM     19 O14  LIG A   1       9.525  -8.580  -4.413 +0.00 -0.00    -0.800 OA 
DOCKED: ATOM     20 V6   LIG A   1       5.441  -7.783  -5.315 +0.02 +0.01    +1.500 Zn 
DOCKED: ATOM     21 O15  LIG A   1       4.056  -8.336  -4.540 +0.01 -0.00    -0.750 OA 
DOCKED: ATOM     22 V7   LIG A   1       2.364  -7.542  -5.395 +0.02 +0.01    +1.500 Zn 
DOCKED: ATOM     23 O16  LIG A   1       1.233  -8.232  -4.489 +0.01 -0.00    -0.800 OA 
DOCKED: ATOM     24 O17  LIG A   1       2.834  -6.001  -4.295 +0.04 -0.00    -0.750 OA 
DOCKED: ATOM     25 V8   LIG A   1       4.099  -5.021  -4.952 +0.16 +0.01    +1.500 Zn 
DOCKED: ATOM     26 O18  LIG A   1       4.158  -6.595  -6.512 +0.01 -0.00    -0.750 OA 
DOCKED: ATOM     27 O19  LIG A   1       2.680  -8.820  -6.699 +0.00 -0.00    -0.750 OA 
DOCKED: ATOM     28 V9   LIG A   1       3.895  -8.355  -7.959 +0.00 +0.00    +1.500 Zn 
DOCKED: ATOM     29 V10  LIG A   1       2.481  -5.624  -7.778 +0.02 +0.01    +1.500 Zn 
DOCKED: ATOM     30 O20  LIG A   1       1.455  -6.459  -6.507 +0.01 -0.00    -0.750 OA 
DOCKED: ATOM     31 O21  LIG A   1       2.875  -4.269  -6.318 +0.03 +0.00    -0.750 OA 
DOCKED: ATOM     32 O22  LIG A   1       5.608  -4.451  -6.228 +0.03 -0.01    -0.750 OA 
DOCKED: ATOM     33 O23  LIG A   1       2.751  -7.099  -8.745 +0.00 -0.00    -0.750 OA 
DOCKED: ATOM     34 O24  LIG A   1       3.833  -9.561  -9.006 +0.00 -0.00    -0.800 OA 
DOCKED: ATOM     35 O25  LIG A   1       1.448  -4.780  -8.653 +0.01 -0.00    -0.800 OA 
DOCKED: ATOM     36 O26  LIG A   1       5.566  -6.076  -4.355 +0.03 -0.02    -0.750 OA 
DOCKED: ATOM     37 O27  LIG A   1       4.196  -3.735  -3.994 -0.03 +0.01    -0.800 OA 
DOCKED: ATOM     38 O28  LIG A   1       6.790  -8.481  -4.554 +0.01 -0.01    -0.750 OA 
DOCKED: ENDROOT
DOCKED: TORSDOF 0
DOCKED: TER
DOCKED: ENDMDL
________________________________________________________________________________


    FINAL DOCKED STATE:
    ________________________


Run:   3 / 20
Time taken for this run:   0.013s

DOCKED: MODEL        3
DOCKED: USER    Run = 3
DOCKED: USER
DOCKED: USER    Estimated Free Energy of Binding    =  -0.15 kcal/mol  [=(1)+(2)+(3)-(4)]
DOCKED: USER
DOCKED: USER    (1) Final Intermolecular Energy     =  -0.15 kcal/mol
DOCKED: USER        vdW + Hbond + desolv Energy     =  +0.13 kcal/mol
DOCKED: USER        Electrostatic Energy            =  -0.28 kcal/mol
DOCKED: USER        Moving Ligand-Fixed Receptor    =  -0.15 kcal/mol
DOCKED: USER        Moving Ligand-Moving Receptor   =  +0.00 kcal/mol
DOCKED: USER    (2) Final Total Internal Energy     =  +0.00 kcal/mol
DOCKED: USER    (3) Torsional Free Energy           =  +0.00 kcal/mol
DOCKED: USER    (4) Unbound System's Energy         =  +0.00 kcal/mol
DOCKED: USER
DOCKED: USER
DOCKED: USER                              x       y       z     vdW  Elec       q    Type
DOCKED: USER                           _______ _______ _______ _____ _____    ______ ____
DOCKED: ROOT
DOCKED: ATOM      1 V1   LIG A   1       1.251  -8.382  -8.113 +0.00 +0.00    +1.500 Zn 
DOCKED: ATOM      2 V2   LIG A   1       2.498  -5.591  -8.581 +0.01 +0.00    +1.500 Zn 
DOCKED: ATOM      3 V3   LIG A   1       4.253  -7.923  -7.558 +0.00 +0.01    +1.500 Zn 
DOCKED: ATOM      4 V4   LIG A   1       2.308  -8.557  -5.208 +0.00 +0.00    +1.500 Zn 
DOCKED: ATOM      5 V5   LIG A   1       0.450  -6.254  -6.063 +0.05 +0.01    +1.500 Zn 
DOCKED: ATOM      6 O1   LIG A   1       0.510  -9.400  -9.108 +0.00 -0.00    -0.800 OA 
DOCKED: ATOM      7 O2   LIG A   1       1.632  -6.896  -9.316 +0.00 -0.00    -0.750 OA 
DOCKED: ATOM      8 O3   LIG A   1       3.213  -8.853  -8.497 +0.00 -0.00    -0.750 OA 
DOCKED: ATOM      9 O4   LIG A   1       1.520  -9.414  -6.597 +0.00 -0.00    -0.750 OA 
DOCKED: ATOM     10 O5   LIG A   1      -0.081  -7.425  -7.371 +0.00 -0.00    -0.750 OA 
DOCKED: ATOM     11 O6   LIG A   1       2.525  -6.941  -6.823 +0.01 -0.00    -0.750 OA 
DOCKED: ATOM     12 O7   LIG A   1       3.541  -4.565  -7.136 +0.02 -0.00    -0.750 OA 
DOCKED: ATOM     13 O8   LIG A   1       4.242  -6.340  -8.719 +0.00 -0.00    -0.750 OA 
DOCKED: ATOM     14 O9   LIG A   1       0.876  -5.002  -7.604 +0.01 -0.00    -0.750 OA 
DOCKED: ATOM     15 O10  LIG A   1       0.790  -7.519  -4.855 +0.01 -0.00    -0.750 OA 
DOCKED: ATOM     16 O11  LIG A   1       2.544  -4.422  -9.682 +0.00 -0.00    -0.800 OA 
DOCKED: ATOM     17 O12  LIG A   1       5.850  -8.370  -7.932 +0.00 -0.00    -0.750 OA 
DOCKED: ATOM     18 O13  LIG A   1       2.259  -9.632  -4.026 +0.00 -0.00    -0.800 OA 
DOCKED: ATOM     19 O14  LIG A   1      -0.900  -5.581  -5.540 +0.04 -0.02    -0.800 OA 
DOCKED: ATOM     20 V6   LIG A   1       3.357  -5.515  -5.506 +0.10 +0.01    +1.500 Zn 
DOCKED: ATOM     21 O15  LIG A   1       4.396  -4.584  -4.568 +0.02 -0.01    -0.750 OA 
DOCKED: ATOM     22 V7   LIG A   1       6.360  -5.055  -4.952 +0.13 +0.10    +1.500 Zn 
DOCKED: ATOM     23 O16  LIG A   1       7.099  -4.037  -3.957 -0.54 -0.29    -0.800 OA 
DOCKED: ATOM     24 O17  LIG A   1       5.978  -6.542  -3.748 +0.03 -0.02    -0.750 OA 
DOCKED: ATOM     25 V8   LIG A   1       5.112  -7.847  -4.484 +0.02 +0.01    +1.500 Zn 
DOCKED: ATOM     26 O18  LIG A   1       5.084  -6.496  -6.242 +0.02 -0.01    -0.750 OA 
DOCKED: ATOM     27 O19  LIG A   1       6.090  -4.024  -6.468 +0.02 -0.01    -0.750 OA 
DOCKED: ATOM     28 V9   LIG A   1       5.302  -4.881  -7.857 +0.04 +0.01    +1.500 Zn 
DOCKED: ATOM     29 V10  LIG A   1       7.160  -7.184  -7.002 +0.01 +0.01    +1.500 Zn 
DOCKED: ATOM     30 O20  LIG A   1       7.691  -6.012  -5.694 +0.02 -0.02    -0.750 OA 
DOCKED: ATOM     31 O21  LIG A   1       6.734  -8.436  -5.460 +0.00 -0.01    -0.750 OA 
DOCKED: ATOM     32 O22  LIG A   1       4.069  -8.873  -5.929 +0.00 -0.00    -0.750 OA 
DOCKED: ATOM     33 O23  LIG A   1       6.820  -5.918  -8.210 +0.01 -0.00    -0.750 OA 
DOCKED: ATOM     34 O24  LIG A   1       5.350  -3.806  -9.039 +0.01 -0.00    -0.800 OA 
DOCKED: ATOM     35 O25  LIG A   1       8.510  -7.856  -7.525 +0.00 -0.00    -0.800 OA 
DOCKED: ATOM     36 O26  LIG A   1       3.368  -7.098  -4.346 +0.02 -0.00    -0.750 OA 
DOCKED: ATOM     37 O27  LIG A   1       5.067  -9.015  -3.383 +0.00 -0.00    -0.800 OA 
DOCKED: ATOM     38 O28  LIG A   1       1.761  -5.068  -5.133 +0.05 -0.00    -0.750 OA 
DOCKED: ENDROOT
DOCKED: TORSDOF 0
DOCKED: TER
DOCKED: ENDMDL
________________________________________________________________________________


    FINAL DOCKED STATE:
    ________________________


Run:   4 / 20
Time taken for this run:   0.013s

DOCKED: MODEL        4
DOCKED: USER    Run = 4
DOCKED: USER
DOCKED: USER    Estimated Free Energy of Binding    =  +0.29 kcal/mol  [=(1)+(2)+(3)-(4)]
DOCKED: USER
DOCKED: USER    (1) Final Intermolecular Energy     =  +0.29 kcal/mol
DOCKED: USER        vdW + Hbond + desolv Energy     =  +0.28 kcal/mol
DOCKED: USER        Electrostatic Energy            =  +0.02 kcal/mol
DOCKED: USER        Moving Ligand-Fixed Receptor    =  +0.29 kcal/mol
DOCKED: USER        Moving Ligand-Moving Receptor   =  +0.00 kcal/mol
DOCKED: USER    (2) Final Total Internal Energy     =  +0.00 kcal/mol
DOCKED: USER    (3) Torsional Free Energy           =  +0.00 kcal/mol
DOCKED: USER    (4) Unbound System's Energy         =  +0.00 kcal/mol
DOCKED: USER
DOCKED: USER
DOCKED: USER                              x       y       z     vdW  Elec       q    Type
DOCKED: USER                           _______ _______ _______ _____ _____    ______ ____
DOCKED: ROOT
DOCKED: ATOM      1 V1   LIG A   1      -7.700   7.899  -6.373 +0.00 -0.00    +1.500 Zn 
DOCKED: ATOM      2 V2   LIG A   1      -5.293   8.571  -4.552 +0.00 +0.00    +1.500 Zn 
DOCKED: ATOM      3 V3   LIG A   1      -4.874   8.169  -7.589 +0.00 +0.00    +1.500 Zn 
DOCKED: ATOM      4 V4   LIG A   1      -6.313   5.405  -7.575 +0.00 -0.00    +1.500 Zn 
DOCKED: ATOM      5 V5   LIG A   1      -6.796   5.620  -4.540 +0.06 -0.01    +1.500 Zn 
DOCKED: ATOM      6 O1   LIG A   1      -9.057   8.695  -6.684 +0.00 -0.00    -0.800 OA 
DOCKED: ATOM      7 O2   LIG A   1      -6.851   9.097  -5.089 +0.00 -0.00    -0.750 OA 
DOCKED: ATOM      8 O3   LIG A   1      -6.419   8.825  -7.686 +0.00 -0.00    -0.750 OA 
DOCKED: ATOM      9 O4   LIG A   1      -7.707   6.560  -7.654 +0.00 +0.00    -0.750 OA 
DOCKED: ATOM     10 O5   LIG A   1      -8.129   6.781  -5.029 +0.00 +0.00    -0.750 OA 
DOCKED: ATOM     11 O6   LIG A   1      -5.617   6.947  -6.025 +0.00 +0.00    -0.750 OA 
DOCKED: ATOM     12 O7   LIG A   1      -3.588   7.425  -4.466 +0.00 -0.00    -0.750 OA 
DOCKED: ATOM     13 O8   LIG A   1      -4.288   9.213  -6.034 +0.00 +0.00    -0.750 OA 
DOCKED: ATOM     14 O9   LIG A   1      -6.106   7.164  -3.416 +0.01 +0.00    -0.750 OA 
DOCKED: ATOM     15 O10  LIG A   1      -6.934   4.606  -5.999 +0.02 +0.01    -0.750 OA 
DOCKED: ATOM     16 O11  LIG A   1      -4.867   9.593  -3.386 +0.00 +0.00    -0.800 OA 
DOCKED: ATOM     17 O12  LIG A   1      -3.880   8.984  -8.700 +0.00 -0.00    -0.750 OA 
DOCKED: ATOM     18 O13  LIG A   1      -6.675   4.301  -8.673 +0.00 +0.00    -0.800 OA 
DOCKED: ATOM     19 O14  LIG A   1      -7.437   4.719  -3.388 +0.04 +0.01    -0.800 OA 
DOCKED: ATOM     20 V6   LIG A   1      -3.900   5.850  -5.472 +0.03 +0.00    +1.500 Zn 
DOCKED: ATOM     21 O15  LIG A   1      -2.355   5.194  -5.374 +0.02 -0.00    -0.750 OA 
DOCKED: ATOM     22 V7   LIG A   1      -1.074   6.120  -6.688 +0.01 -0.00    +1.500 Zn 
DOCKED: ATOM     23 O16  LIG A   1       0.283   5.323  -6.376 +0.02 +0.00    -0.800 OA 
DOCKED: ATOM     24 O17  LIG A   1      -1.924   4.922  -7.971 +0.00 -0.00    -0.750 OA 
DOCKED: ATOM     25 V8   LIG A   1      -3.482   5.447  -8.509 +0.00 +0.00    +1.500 Zn 
DOCKED: ATOM     26 O18  LIG A   1      -3.158   7.071  -7.035 +0.00 -0.00    -0.750 OA 
DOCKED: ATOM     27 O19  LIG A   1      -1.068   7.459  -5.406 +0.00 +0.00    -0.750 OA 
DOCKED: ATOM     28 V9   LIG A   1      -2.461   8.613  -5.486 +0.00 -0.00    +1.500 Zn 
DOCKED: ATOM     29 V10  LIG A   1      -1.979   8.399  -8.521 +0.00 -0.00    +1.500 Zn 
DOCKED: ATOM     30 O20  LIG A   1      -0.645   7.238  -8.030 +0.00 +0.00    -0.750 OA 
DOCKED: ATOM     31 O21  LIG A   1      -2.669   6.854  -9.645 +0.00 -0.00    -0.750 OA 
DOCKED: ATOM     32 O22  LIG A   1      -5.187   6.593  -8.595 +0.00 -0.00    -0.750 OA 
DOCKED: ATOM     33 O23  LIG A   1      -1.840   9.413  -7.061 +0.00 +0.00    -0.750 OA 
DOCKED: ATOM     34 O24  LIG A   1      -2.100   9.717  -4.388 +0.00 +0.00    -0.800 OA 
DOCKED: ATOM     35 O25  LIG A   1      -1.338   9.299  -9.672 +0.00 +0.00    -0.800 OA 
DOCKED: ATOM     36 O26  LIG A   1      -4.487   4.805  -7.026 +0.01 -0.00    -0.750 OA 
DOCKED: ATOM     37 O27  LIG A   1      -3.908   4.426  -9.674 +0.00 -0.00    -0.800 OA 
DOCKED: ATOM     38 O28  LIG A   1      -4.895   5.035  -4.361 +0.04 -0.00    -0.750 OA 
DOCKED: ENDROOT
DOCKED: TORSDOF 0
DOCKED: TER
DOCKED: ENDMDL
________________________________________________________________________________


    FINAL DOCKED STATE:
    ________________________


Run:   5 / 20
Time taken for this run:   0.013s

DOCKED: MODEL        5
DOCKED: USER    Run = 5
DOCKED: USER
DOCKED: USER    Estimated Free Energy of Binding    =  +0.08 kcal/mol  [=(1)+(2)+(3)-(4)]
DOCKED: USER
DOCKED: USER    (1) Final Intermolecular Energy     =  +0.08 kcal/mol
DOCKED: USER        vdW + Hbond + desolv Energy     =  +0.34 kcal/mol
DOCKED: USER        Electrostatic Energy            =  -0.26 kcal/mol
DOCKED: USER        Moving Ligand-Fixed Receptor    =  +0.08 kcal/mol
DOCKED: USER        Moving Ligand-Moving Receptor   =  +0.00 kcal/mol
DOCKED: USER    (2) Final Total Internal Energy     =  +0.00 kcal/mol
DOCKED: USER    (3) Torsional Free Energy           =  +0.00 kcal/mol
DOCKED: USER    (4) Unbound System's Energy         =  +0.00 kcal/mol
DOCKED: USER
DOCKED: USER
DOCKED: USER                              x       y       z     vdW  Elec       q    Type
DOCKED: USER                           _______ _______ _______ _____ _____    ______ ____
DOCKED: ROOT
DOCKED: ATOM      1 V1   LIG A   1       1.327  -7.992  -5.521 +0.01 +0.01    +1.500 Zn 
DOCKED: ATOM      2 V2   LIG A   1       3.832  -8.417  -7.283 +0.00 +0.00    +1.500 Zn 
DOCKED: ATOM      3 V3   LIG A   1       3.732  -6.073  -5.270 +0.08 +0.01    +1.500 Zn 
DOCKED: ATOM      4 V4   LIG A   1       1.013  -5.034  -6.381 +0.09 +0.01    +1.500 Zn 
DOCKED: ATOM      5 V5   LIG A   1       0.955  -7.290  -8.478 +0.00 +0.01    +1.500 Zn 
DOCKED: ATOM      6 O1   LIG A   1       0.615  -8.933  -4.434 +0.00 -0.00    -0.800 OA 
DOCKED: ATOM      7 O2   LIG A   1       2.788  -9.141  -6.110 +0.00 -0.00    -0.750 OA 
DOCKED: ATOM      8 O3   LIG A   1       2.804  -7.148  -4.370 +0.02 -0.00    -0.750 OA 
DOCKED: ATOM      9 O4   LIG A   1       0.486  -6.360  -5.264 +0.03 -0.01    -0.750 OA 
DOCKED: ATOM     10 O5   LIG A   1       0.452  -8.335  -7.057 +0.00 -0.00    -0.750 OA 
DOCKED: ATOM     11 O6   LIG A   1       2.557  -6.636  -6.941 +0.01 -0.00    -0.750 OA 
DOCKED: ATOM     12 O7   LIG A   1       4.622  -6.954  -8.493 +0.00 -0.00    -0.750 OA 
DOCKED: ATOM     13 O8   LIG A   1       4.911  -7.419  -6.075 +0.01 -0.01    -0.750 OA 
DOCKED: ATOM     14 O9   LIG A   1       2.464  -8.631  -8.703 +0.00 -0.00    -0.750 OA 
DOCKED: ATOM     15 O10  LIG A   1       0.173  -5.811  -7.863 +0.01 -0.00    -0.750 OA 
DOCKED: ATOM     16 O11  LIG A   1       4.836  -9.582  -7.751 +0.00 -0.00    -0.800 OA 
DOCKED: ATOM     17 O12  LIG A   1       4.926  -5.420  -4.251 +0.03 -0.02    -0.750 OA 
DOCKED: ATOM     18 O13  LIG A   1       0.022  -3.830  -6.031 +0.06 -0.01    -0.800 OA 
DOCKED: ATOM     19 O14  LIG A   1       0.011  -7.749  -9.681 +0.00 -0.00    -0.800 OA 
DOCKED: ATOM     20 V6   LIG A   1       3.419  -5.490  -8.490 +0.01 +0.00    +1.500 Zn 
DOCKED: ATOM     21 O15  LIG A   1       4.347  -4.416  -9.390 +0.01 -0.00    -0.750 OA 
DOCKED: ATOM     22 V7   LIG A   1       5.825  -3.571  -8.238 +0.06 -0.00    +1.500 Zn 
DOCKED: ATOM     23 O16  LIG A   1       6.535  -2.631  -9.327 +0.01 +0.00    -0.800 OA 
DOCKED: ATOM     24 O17  LIG A   1       4.363  -2.421  -7.650 +0.02 +0.00    -0.750 OA 
DOCKED: ATOM     25 V8   LIG A   1       3.319  -3.146  -6.476 +0.17 -0.01    +1.500 Zn 
DOCKED: ATOM     26 O18  LIG A   1       4.594  -4.927  -6.820 +0.02 -0.00    -0.750 OA 
DOCKED: ATOM     27 O19  LIG A   1       6.664  -5.203  -8.495 +0.01 -0.00    -0.750 OA 
DOCKED: ATOM     28 V9   LIG A   1       6.138  -6.529  -7.378 +0.02 +0.01    +1.500 Zn 
DOCKED: ATOM     29 V10  LIG A   1       6.195  -4.273  -5.281 +0.16 +0.09    +1.500 Zn 
DOCKED: ATOM     30 O20  LIG A   1       6.698  -3.228  -6.703 +0.02 +0.00    -0.750 OA 
DOCKED: ATOM     31 O21  LIG A   1       4.686  -2.932  -5.057 -0.04 +0.02    -0.750 OA 
DOCKED: ATOM     32 O22  LIG A   1       2.528  -4.609  -5.266 +0.04 +0.01    -0.750 OA 
DOCKED: ATOM     33 O23  LIG A   1       6.978  -5.752  -5.897 +0.02 -0.02    -0.750 OA 
DOCKED: ATOM     34 O24  LIG A   1       7.128  -7.733  -7.729 +0.00 -0.00    -0.800 OA 
DOCKED: ATOM     35 O25  LIG A   1       7.139  -3.815  -4.079 -0.58 -0.30    -0.800 OA 
DOCKED: ATOM     36 O26  LIG A   1       2.240  -4.143  -7.685 +0.02 -0.00    -0.750 OA 
DOCKED: ATOM     37 O27  LIG A   1       2.316  -1.982  -6.009 +0.03 -0.02    -0.800 OA 
DOCKED: ATOM     38 O28  LIG A   1       2.225  -6.143  -9.509 +0.00 -0.00    -0.750 OA 
DOCKED: ENDROOT
DOCKED: TORSDOF 0
DOCKED: TER
DOCKED: ENDMDL
________________________________________________________________________________


    FINAL DOCKED STATE:
    ________________________


Run:   6 / 20
Time taken for this run:   0.013s

DOCKED: MODEL        6
DOCKED: USER    Run = 6
DOCKED: USER
DOCKED: USER    Estimated Free Energy of Binding    =  +0.19 kcal/mol  [=(1)+(2)+(3)-(4)]
DOCKED: USER
DOCKED: USER    (1) Final Intermolecular Energy     =  +0.19 kcal/mol
DOCKED: USER        vdW + Hbond + desolv Energy     =  +0.18 kcal/mol
DOCKED: USER        Electrostatic Energy            =  +0.01 kcal/mol
DOCKED: USER        Moving Ligand-Fixed Receptor    =  +0.19 kcal/mol
DOCKED: USER        Moving Ligand-Moving Receptor   =  +0.00 kcal/mol
DOCKED: USER    (2) Final Total Internal Energy     =  +0.00 kcal/mol
DOCKED: USER    (3) Torsional Free Energy           =  +0.00 kcal/mol
DOCKED: USER    (4) Unbound System's Energy         =  +0.00 kcal/mol
DOCKED: USER
DOCKED: USER
DOCKED: USER                              x       y       z     vdW  Elec       q    Type
DOCKED: USER                           _______ _______ _______ _____ _____    ______ ____
DOCKED: ROOT
DOCKED: ATOM      1 V1   LIG A   1      -8.370   5.860  -5.771 +0.02 -0.00    +1.500 Zn 
DOCKED: ATOM      2 V2   LIG A   1      -6.582   5.623  -8.282 +0.00 -0.00    +1.500 Zn 
DOCKED: ATOM      3 V3   LIG A   1      -5.298   5.992  -5.493 +0.02 -0.00    +1.500 Zn 
DOCKED: ATOM      4 V4   LIG A   1      -7.035   8.500  -4.858 +0.00 +0.00    +1.500 Zn 
DOCKED: ATOM      5 V5   LIG A   1      -8.404   8.307  -7.611 +0.00 +0.00    +1.500 Zn 
DOCKED: ATOM      6 O1   LIG A   1      -9.441   4.855  -5.125 +0.02 +0.00    -0.800 OA 
DOCKED: ATOM      7 O2   LIG A   1      -7.808   4.848  -7.340 +0.00 +0.00    -0.750 OA 
DOCKED: ATOM      8 O3   LIG A   1      -6.631   5.103  -4.984 +0.02 +0.00    -0.750 OA 
DOCKED: ATOM      9 O4   LIG A   1      -8.162   7.143  -4.449 +0.00 +0.00    -0.750 OA 
DOCKED: ATOM     10 O5   LIG A   1      -9.346   6.940  -6.831 +0.00 +0.00    -0.750 OA 
DOCKED: ATOM     11 O6   LIG A   1      -6.651   7.132  -6.660 +0.00 +0.00    -0.750 OA 
DOCKED: ATOM     12 O7   LIG A   1      -5.162   7.021  -8.793 +0.00 -0.00    -0.750 OA 
DOCKED: ATOM     13 O8   LIG A   1      -5.087   5.098  -7.228 +0.00 +0.00    -0.750 OA 
DOCKED: ATOM     14 O9   LIG A   1      -7.893   6.923  -9.006 +0.00 -0.00    -0.750 OA 
DOCKED: ATOM     15 O10  LIG A   1      -8.219   9.242  -6.105 +0.00 -0.00    -0.750 OA 
DOCKED: ATOM     16 O11  LIG A   1      -6.404   4.716  -9.597 +0.00 +0.00    -0.800 OA 
DOCKED: ATOM     17 O12  LIG A   1      -3.905   5.305  -4.802 +0.03 -0.00    -0.750 OA 
DOCKED: ATOM     18 O13  LIG A   1      -7.184   9.501  -3.621 +0.00 -0.00    -0.800 OA 
DOCKED: ATOM     19 O14  LIG A   1      -9.488   9.133  -8.441 +0.00 -0.00    -0.800 OA 
DOCKED: ATOM     20 V6   LIG A   1      -5.359   8.497  -7.621 +0.00 +0.00    +1.500 Zn 
DOCKED: ATOM     21 O15  LIG A   1      -4.026   9.386  -8.132 +0.00 -0.00    -0.750 OA 
DOCKED: ATOM     22 V7   LIG A   1      -2.286   8.629  -7.344 +0.00 -0.00    +1.500 Zn 
DOCKED: ATOM     23 O16  LIG A   1      -1.216   9.634  -7.990 +0.00 +0.00    -0.800 OA 
DOCKED: ATOM     24 O17  LIG A   1      -2.849   9.642  -5.775 +0.00 +0.00    -0.750 OA 
DOCKED: ATOM     25 V8   LIG A   1      -4.075   8.866  -4.832 +0.00 -0.00    +1.500 Zn 
DOCKED: ATOM     26 O18  LIG A   1      -4.007   7.357  -6.456 +0.00 -0.00    -0.750 OA 
DOCKED: ATOM     27 O19  LIG A   1      -2.495   7.347  -8.666 +0.00 -0.00    -0.750 OA 
DOCKED: ATOM     28 V9   LIG A   1      -3.623   5.989  -8.257 +0.00 +0.00    +1.500 Zn 
DOCKED: ATOM     29 V10  LIG A   1      -2.253   6.182  -5.504 +0.03 +0.00    +1.500 Zn 
DOCKED: ATOM     30 O20  LIG A   1      -1.312   7.549  -6.285 +0.00 +0.00    -0.750 OA 
DOCKED: ATOM     31 O21  LIG A   1      -2.764   7.567  -4.109 +0.00 +0.00    -0.750 OA 
DOCKED: ATOM     32 O22  LIG A   1      -5.495   7.469  -4.322 +0.00 -0.00    -0.750 OA 
DOCKED: ATOM     33 O23  LIG A   1      -2.439   5.247  -7.011 +0.01 -0.00    -0.750 OA 
DOCKED: ATOM     34 O24  LIG A   1      -3.473   4.989  -9.494 +0.00 -0.00    -0.800 OA 
DOCKED: ATOM     35 O25  LIG A   1      -1.169   5.356  -4.674 +0.03 +0.00    -0.800 OA 
DOCKED: ATOM     36 O26  LIG A   1      -5.570   9.391  -5.887 +0.00 -0.00    -0.750 OA 
DOCKED: ATOM     37 O27  LIG A   1      -4.253   9.773  -3.519 +0.00 +0.00    -0.800 OA 
DOCKED: ATOM     38 O28  LIG A   1      -6.751   9.183  -8.313 +0.00 -0.00    -0.750 OA 
DOCKED: ENDROOT
DOCKED: TORSDOF 0
DOCKED: TER
DOCKED: ENDMDL
________________________________________________________________________________


    FINAL DOCKED STATE:
    ________________________


Run:   7 / 20
Time taken for this run:   0.013s

DOCKED: MODEL        7
DOCKED: USER    Run = 7
DOCKED: USER
DOCKED: USER    Estimated Free Energy of Binding    =  +0.34 kcal/mol  [=(1)+(2)+(3)-(4)]
DOCKED: USER
DOCKED: USER    (1) Final Intermolecular Energy     =  +0.34 kcal/mol
DOCKED: USER        vdW + Hbond + desolv Energy     =  +0.33 kcal/mol
DOCKED: USER        Electrostatic Energy            =  +0.01 kcal/mol
DOCKED: USER        Moving Ligand-Fixed Receptor    =  +0.34 kcal/mol
DOCKED: USER        Moving Ligand-Moving Receptor   =  +0.00 kcal/mol
DOCKED: USER    (2) Final Total Internal Energy     =  +0.00 kcal/mol
DOCKED: USER    (3) Torsional Free Energy           =  +0.00 kcal/mol
DOCKED: USER    (4) Unbound System's Energy         =  +0.00 kcal/mol
DOCKED: USER
DOCKED: USER
DOCKED: USER                              x       y       z     vdW  Elec       q    Type
DOCKED: USER                           _______ _______ _______ _____ _____    ______ ____
DOCKED: ROOT
DOCKED: ATOM      1 V1   LIG A   1      -8.377   6.656  -5.988 +0.01 -0.00    +1.500 Zn 
DOCKED: ATOM      2 V2   LIG A   1      -6.109   4.593  -5.588 +0.08 -0.01    +1.500 Zn 
DOCKED: ATOM      3 V3   LIG A   1      -5.435   7.590  -5.936 +0.00 +0.00    +1.500 Zn 
DOCKED: ATOM      4 V4   LIG A   1      -7.101   7.816  -8.560 +0.00 +0.00    +1.500 Zn 
DOCKED: ATOM      5 V5   LIG A   1      -7.855   4.834  -8.393 +0.00 -0.00    +1.500 Zn 
DOCKED: ATOM      6 O1   LIG A   1      -9.625   7.062  -5.065 +0.00 -0.00    -0.800 OA 
DOCKED: ATOM      7 O2   LIG A   1      -7.557   5.254  -4.910 +0.02 +0.00    -0.750 OA 
DOCKED: ATOM      8 O3   LIG A   1      -6.901   7.807  -5.142 +0.00 -0.00    -0.750 OA 
DOCKED: ATOM      9 O4   LIG A   1      -8.376   7.982  -7.283 +0.00 -0.00    -0.750 OA 
DOCKED: ATOM     10 O5   LIG A   1      -9.030   5.402  -7.103 +0.00 +0.00    -0.750 OA 
DOCKED: ATOM     11 O6   LIG A   1      -6.428   6.150  -7.133 +0.00 +0.00    -0.750 OA 
DOCKED: ATOM     12 O7   LIG A   1      -4.525   4.391  -6.885 +0.01 +0.00    -0.750 OA 
DOCKED: ATOM     13 O8   LIG A   1      -4.914   5.949  -4.995 +0.01 -0.00    -0.750 OA 
DOCKED: ATOM     14 O9   LIG A   1      -7.147   3.593  -6.950 +0.02 +0.01    -0.750 OA 
DOCKED: ATOM     15 O10  LIG A   1      -7.939   6.338  -9.347 +0.00 -0.00    -0.750 OA 
DOCKED: ATOM     16 O11  LIG A   1      -5.711   3.354  -4.644 +0.05 +0.02    -0.800 OA 
DOCKED: ATOM     17 O12  LIG A   1      -4.271   8.572  -5.180 +0.00 +0.00    -0.750 OA 
DOCKED: ATOM     18 O13  LIG A   1      -7.449   8.985  -9.593 +0.00 -0.00    -0.800 OA 
DOCKED: ATOM     19 O14  LIG A   1      -8.680   3.783  -9.266 +0.00 +0.00    -0.800 OA 
DOCKED: ATOM     20 V6   LIG A   1      -4.874   5.481  -8.395 +0.00 -0.00    +1.500 Zn 
DOCKED: ATOM     21 O15  LIG A   1      -3.408   5.264  -9.189 +0.00 -0.00    -0.750 OA 
DOCKED: ATOM     22 V7   LIG A   1      -1.931   6.416  -8.343 +0.00 +0.00    +1.500 Zn 
DOCKED: ATOM     23 O16  LIG A   1      -0.684   6.009  -9.267 +0.00 +0.00    -0.800 OA 
DOCKED: ATOM     24 O17  LIG A   1      -2.752   7.818  -9.421 +0.00 -0.00    -0.750 OA 
DOCKED: ATOM     25 V8   LIG A   1      -4.200   8.479  -8.743 +0.00 +0.00    +1.500 Zn 
DOCKED: ATOM     26 O18  LIG A   1      -3.881   6.920  -7.199 +0.00 -0.00    -0.750 OA 
DOCKED: ATOM     27 O19  LIG A   1      -1.933   5.089  -7.049 +0.01 -0.00    -0.750 OA 
DOCKED: ATOM     28 V9   LIG A   1      -3.207   5.255  -5.772 +0.04 +0.01    +1.500 Zn 
DOCKED: ATOM     29 V10  LIG A   1      -2.454   8.238  -5.939 +0.00 -0.00    +1.500 Zn 
DOCKED: ATOM     30 O20  LIG A   1      -1.279   7.669  -7.228 +0.00 +0.00    -0.750 OA 
DOCKED: ATOM     31 O21  LIG A   1      -3.162   9.479  -7.381 +0.00 +0.00    -0.750 OA 
DOCKED: ATOM     32 O22  LIG A   1      -5.783   8.681  -7.447 +0.00 -0.00    -0.750 OA 
DOCKED: ATOM     33 O23  LIG A   1      -2.370   6.733  -4.985 +0.01 +0.00    -0.750 OA 
DOCKED: ATOM     34 O24  LIG A   1      -2.860   4.087  -4.738 +0.07 -0.01    -0.800 OA 
DOCKED: ATOM     35 O25  LIG A   1      -1.629   9.288  -5.065 +0.00 +0.00    -0.800 OA 
DOCKED: ATOM     36 O26  LIG A   1      -5.395   7.123  -9.337 +0.00 -0.00    -0.750 OA 
DOCKED: ATOM     37 O27  LIG A   1      -4.597   9.716  -9.686 +0.00 -0.00    -0.800 OA 
DOCKED: ATOM     38 O28  LIG A   1      -6.037   4.500  -9.151 +0.00 +0.00    -0.750 OA 
DOCKED: ENDROOT
DOCKED: TORSDOF 0
DOCKED: TER
DOCKED: ENDMDL
________________________________________________________________________________


    FINAL DOCKED STATE:
    ________________________


Run:   8 / 20
Time taken for this run:   0.013s

DOCKED: MODEL        8
DOCKED: USER    Run = 8
DOCKED: USER
DOCKED: USER    Estimated Free Energy of Binding    =  -0.20 kcal/mol  [=(1)+(2)+(3)-(4)]
DOCKED: USER
DOCKED: USER    (1) Final Intermolecular Energy     =  -0.20 kcal/mol
DOCKED: USER        vdW + Hbond + desolv Energy     =  +0.03 kcal/mol
DOCKED: USER        Electrostatic Energy            =  -0.23 kcal/mol
DOCKED: USER        Moving Ligand-Fixed Receptor    =  -0.20 kcal/mol
DOCKED: USER        Moving Ligand-Moving Receptor   =  +0.00 kcal/mol
DOCKED: USER    (2) Final Total Internal Energy     =  +0.00 kcal/mol
DOCKED: USER    (3) Torsional Free Energy           =  +0.00 kcal/mol
DOCKED: USER    (4) Unbound System's Energy         =  +0.00 kcal/mol
DOCKED: USER
DOCKED: USER
DOCKED: USER                              x       y       z     vdW  Elec       q    Type
DOCKED: USER                           _______ _______ _______ _____ _____    ______ ____
DOCKED: ROOT
DOCKED: ATOM      1 V1   LIG A   1       2.518  -7.825  -5.404 +0.01 +0.01    +1.500 Zn 
DOCKED: ATOM      2 V2   LIG A   1       3.980  -8.467  -8.053 +0.00 +0.00    +1.500 Zn 
DOCKED: ATOM      3 V3   LIG A   1       5.603  -7.921  -5.478 +0.02 +0.01    +1.500 Zn 
DOCKED: ATOM      4 V4   LIG A   1       4.136  -5.225  -4.942 +0.15 +0.02    +1.500 Zn 
DOCKED: ATOM      5 V5   LIG A   1       2.445  -5.585  -7.492 +0.03 +0.01    +1.500 Zn 
DOCKED: ATOM      6 O1   LIG A   1       1.461  -8.665  -4.538 +0.00 -0.00    -0.800 OA 
DOCKED: ATOM      7 O2   LIG A   1       2.820  -9.036  -6.902 +0.00 -0.00    -0.750 OA 
DOCKED: ATOM      8 O3   LIG A   1       4.279  -8.639  -4.730 +0.00 -0.00    -0.750 OA 
DOCKED: ATOM      9 O4   LIG A   1       2.970  -6.435  -4.264 +0.03 -0.00    -0.750 OA 
DOCKED: ATOM     10 O5   LIG A   1       1.505  -6.782  -6.466 +0.01 -0.00    -0.750 OA 
DOCKED: ATOM     11 O6   LIG A   1       4.208  -6.798  -6.611 +0.01 -0.00    -0.750 OA 
DOCKED: ATOM     12 O7   LIG A   1       5.426  -7.252  -8.866 +0.00 -0.00    -0.750 OA 
DOCKED: ATOM     13 O8   LIG A   1       5.546  -9.003  -7.114 +0.00 -0.00    -0.750 OA 
DOCKED: ATOM     14 O9   LIG A   1       2.689  -7.144  -8.770 +0.00 -0.00    -0.750 OA 
DOCKED: ATOM     15 O10  LIG A   1       2.870  -4.519  -6.128 +0.03 +0.00    -0.750 OA 
DOCKED: ATOM     16 O11  LIG A   1       3.938  -9.516  -9.269 +0.00 -0.00    -0.800 OA 
DOCKED: ATOM     17 O12  LIG A   1       7.015  -8.647  -4.869 +0.00 -0.01    -0.750 OA 
DOCKED: ATOM     18 O13  LIG A   1       4.204  -4.094  -3.815 -0.01 -0.00    -0.800 OA 
DOCKED: ATOM     19 O14  LIG A   1       1.332  -4.761  -8.286 +0.01 -0.00    -0.800 OA 
DOCKED: ATOM     20 V6   LIG A   1       5.473  -5.652  -7.853 +0.03 +0.01    +1.500 Zn 
DOCKED: ATOM     21 O15  LIG A   1       6.797  -4.934  -8.601 +0.01 -0.00    -0.750 OA 
DOCKED: ATOM     22 V7   LIG A   1       8.559  -5.749  -7.926 +0.01 +0.01    +1.500 Zn 
DOCKED: ATOM     23 O16  LIG A   1       9.615  -4.908  -8.793 +0.00 -0.00    -0.800 OA 
DOCKED: ATOM     24 O17  LIG A   1       8.256  -4.537  -6.428 +0.02 -0.01    -0.750 OA 
DOCKED: ATOM     25 V8   LIG A   1       7.096  -5.106  -5.278 +0.12 +0.08    +1.500 Zn 
DOCKED: ATOM     26 O18  LIG A   1       6.867  -6.775  -6.720 +0.01 -0.01    -0.750 OA 
DOCKED: ATOM     27 O19  LIG A   1       8.106  -7.138  -9.066 +0.00 -0.00    -0.750 OA 
DOCKED: ATOM     28 V9   LIG A   1       6.940  -8.348  -8.388 +0.00 +0.00    +1.500 Zn 
DOCKED: ATOM     29 V10  LIG A   1       8.632  -7.988  -5.838 +0.01 +0.01    +1.500 Zn 
DOCKED: ATOM     30 O20  LIG A   1       9.571  -6.791  -6.865 +0.00 -0.01    -0.750 OA 
DOCKED: ATOM     31 O21  LIG A   1       8.387  -6.429  -4.560 +0.02 -0.02    -0.750 OA 
DOCKED: ATOM     32 O22  LIG A   1       5.650  -6.321  -4.464 +0.03 -0.02    -0.750 OA 
DOCKED: ATOM     33 O23  LIG A   1       8.205  -9.054  -7.203 +0.00 -0.00    -0.750 OA 
DOCKED: ATOM     34 O24  LIG A   1       6.873  -9.479  -9.515 +0.00 -0.00    -0.800 OA 
DOCKED: ATOM     35 O25  LIG A   1       9.743  -8.812  -5.045 +0.00 -0.00    -0.800 OA 
DOCKED: ATOM     36 O26  LIG A   1       5.530  -4.570  -6.216 +0.03 -0.01    -0.750 OA 
DOCKED: ATOM     37 O27  LIG A   1       7.138  -4.058  -4.062 -0.57 -0.25    -0.800 OA 
DOCKED: ATOM     38 O28  LIG A   1       4.062  -4.927  -8.461 +0.01 -0.00    -0.750 OA 
DOCKED: ENDROOT
DOCKED: TORSDOF 0
DOCKED: TER
DOCKED: ENDMDL
________________________________________________________________________________


    FINAL DOCKED STATE:
    ________________________


Run:   9 / 20
Time taken for this run:   0.013s

DOCKED: MODEL        9
DOCKED: USER    Run = 9
DOCKED: USER
DOCKED: USER    Estimated Free Energy of Binding    =  +0.28 kcal/mol  [=(1)+(2)+(3)-(4)]
DOCKED: USER
DOCKED: USER    (1) Final Intermolecular Energy     =  +0.28 kcal/mol
DOCKED: USER        vdW + Hbond + desolv Energy     =  +0.28 kcal/mol
DOCKED: USER        Electrostatic Energy            =  +0.00 kcal/mol
DOCKED: USER        Moving Ligand-Fixed Receptor    =  +0.28 kcal/mol
DOCKED: USER        Moving Ligand-Moving Receptor   =  +0.00 kcal/mol
DOCKED: USER    (2) Final Total Internal Energy     =  +0.00 kcal/mol
DOCKED: USER    (3) Torsional Free Energy           =  +0.00 kcal/mol
DOCKED: USER    (4) Unbound System's Energy         =  +0.00 kcal/mol
DOCKED: USER
DOCKED: USER
DOCKED: USER                              x       y       z     vdW  Elec       q    Type
DOCKED: USER                           _______ _______ _______ _____ _____    ______ ____
DOCKED: ROOT
DOCKED: ATOM      1 V1   LIG A   1      -7.526   6.064  -6.794 +0.00 -0.00    +1.500 Zn 
DOCKED: ATOM      2 V2   LIG A   1      -4.885   6.128  -8.402 +0.00 +0.00    +1.500 Zn 
DOCKED: ATOM      3 V3   LIG A   1      -4.818   6.001  -5.313 +0.03 +0.00    +1.500 Zn 
DOCKED: ATOM      4 V4   LIG A   1      -6.703   8.464  -5.019 +0.00 +0.00    +1.500 Zn 
DOCKED: ATOM      5 V5   LIG A   1      -6.866   8.763  -8.081 +0.00 +0.00    +1.500 Zn 
DOCKED: ATOM      6 O1   LIG A   1      -8.749   5.025  -6.793 +0.01 +0.00    -0.800 OA 
DOCKED: ATOM      7 O2   LIG A   1      -6.372   5.278  -8.156 +0.00 +0.00    -0.750 OA 
DOCKED: ATOM      8 O3   LIG A   1      -6.229   5.110  -5.519 +0.02 +0.00    -0.750 OA 
DOCKED: ATOM      9 O4   LIG A   1      -7.879   7.116  -5.310 +0.00 +0.00    -0.750 OA 
DOCKED: ATOM     10 O5   LIG A   1      -8.018   7.340  -7.965 +0.00 -0.00    -0.750 OA 
DOCKED: ATOM     11 O6   LIG A   1      -5.615   7.371  -6.719 +0.00 -0.00    -0.750 OA 
DOCKED: ATOM     12 O7   LIG A   1      -3.402   7.516  -8.081 +0.00 -0.00    -0.750 OA 
DOCKED: ATOM     13 O8   LIG A   1      -3.922   5.375  -6.944 +0.00 -0.00    -0.750 OA 
DOCKED: ATOM     14 O9   LIG A   1      -5.822   7.586  -9.365 +0.00 -0.00    -0.750 OA 
DOCKED: ATOM     15 O10  LIG A   1      -7.308   9.446  -6.494 +0.00 -0.00    -0.750 OA 
DOCKED: ATOM     16 O11  LIG A   1      -4.186   5.426  -9.668 +0.00 -0.00    -0.800 OA 
DOCKED: ATOM     17 O12  LIG A   1      -3.802   5.148  -4.250 +0.04 -0.01    -0.750 OA 
DOCKED: ATOM     18 O13  LIG A   1      -7.346   9.268  -3.797 +0.00 -0.00    -0.800 OA 
DOCKED: ATOM     19 O14  LIG A   1      -7.546   9.759  -9.127 +0.00 -0.00    -0.800 OA 
DOCKED: ATOM     20 V6   LIG A   1      -4.070   8.803  -6.861 +0.00 -0.00    +1.500 Zn 
DOCKED: ATOM     21 O15  LIG A   1      -2.658   9.693  -6.657 +0.00 +0.00    -0.750 OA 
DOCKED: ATOM     22 V7   LIG A   1      -1.361   8.739  -5.380 +0.00 -0.01    +1.500 Zn 
DOCKED: ATOM     23 O16  LIG A   1      -0.139   9.778  -5.383 +0.00 +0.00    -0.800 OA 
DOCKED: ATOM     24 O17  LIG A   1      -2.516   9.525  -4.019 +0.00 +0.00    -0.750 OA 
DOCKED: ATOM     25 V8   LIG A   1      -4.003   8.676  -3.773 +0.00 -0.00    +1.500 Zn 
DOCKED: ATOM     26 O18  LIG A   1      -3.272   7.432  -5.457 +0.00 +0.00    -0.750 OA 
DOCKED: ATOM     27 O19  LIG A   1      -1.009   7.687  -6.865 +0.00 +0.00    -0.750 OA 
DOCKED: ATOM     28 V9   LIG A   1      -2.184   6.340  -7.156 +0.00 -0.00    +1.500 Zn 
DOCKED: ATOM     29 V10  LIG A   1      -2.021   6.040  -4.094 +0.06 +0.00    +1.500 Zn 
DOCKED: ATOM     30 O20  LIG A   1      -0.869   7.463  -4.211 +0.01 +0.01    -0.750 OA 
DOCKED: ATOM     31 O21  LIG A   1      -3.065   7.218  -2.810 +0.01 -0.00    -0.750 OA 
DOCKED: ATOM     32 O22  LIG A   1      -5.486   7.288  -4.093 +0.00 -0.00    -0.750 OA 
DOCKED: ATOM     33 O23  LIG A   1      -1.580   5.358  -5.681 +0.02 -0.00    -0.750 OA 
DOCKED: ATOM     34 O24  LIG A   1      -1.541   5.535  -8.378 +0.00 -0.00    -0.800 OA 
DOCKED: ATOM     35 O25  LIG A   1      -1.341   5.044  -3.049 +0.06 -0.00    -0.800 OA 
DOCKED: ATOM     36 O26  LIG A   1      -4.965   9.429  -5.231 +0.00 -0.00    -0.750 OA 
DOCKED: ATOM     37 O27  LIG A   1      -4.701   9.377  -2.508 +0.00 +0.00    -0.800 OA 
DOCKED: ATOM     38 O28  LIG A   1      -5.085   9.654  -7.925 +0.00 -0.00    -0.750 OA 
DOCKED: ENDROOT
DOCKED: TORSDOF 0
DOCKED: TER
DOCKED: ENDMDL
________________________________________________________________________________


    FINAL DOCKED STATE:
    ________________________


Run:   10 / 20
Time taken for this run:   0.013s

DOCKED: MODEL        10
DOCKED: USER    Run = 10
DOCKED: USER
DOCKED: USER    Estimated Free Energy of Binding    =  -0.06 kcal/mol  [=(1)+(2)+(3)-(4)]
DOCKED: USER
DOCKED: USER    (1) Final Intermolecular Energy     =  -0.06 kcal/mol
DOCKED: USER        vdW + Hbond + desolv Energy     =  +0.18 kcal/mol
DOCKED: USER        Electrostatic Energy            =  -0.24 kcal/mol
DOCKED: USER        Moving Ligand-Fixed Receptor    =  -0.06 kcal/mol
DOCKED: USER        Moving Ligand-Moving Receptor   =  +0.00 kcal/mol
DOCKED: USER    (2) Final Total Internal Energy     =  +0.00 kcal/mol
DOCKED: USER    (3) Torsional Free Energy           =  +0.00 kcal/mol
DOCKED: USER    (4) Unbound System's Energy         =  +0.00 kcal/mol
DOCKED: USER
DOCKED: USER
DOCKED: USER                              x       y       z     vdW  Elec       q    Type
DOCKED: USER                           _______ _______ _______ _____ _____    ______ ____
DOCKED: ROOT
DOCKED: ATOM      1 V1   LIG A   1       2.778  -8.326  -4.214 +0.01 +0.01    +1.500 Zn 
DOCKED: ATOM      2 V2   LIG A   1       3.316  -8.574  -7.250 +0.00 +0.00    +1.500 Zn 
DOCKED: ATOM      3 V3   LIG A   1       5.644  -7.970  -5.307 +0.02 +0.01    +1.500 Zn 
DOCKED: ATOM      4 V4   LIG A   1       4.149  -5.555  -4.025 +0.17 +0.02    +1.500 Zn 
DOCKED: ATOM      5 V5   LIG A   1       1.744  -5.989  -5.901 +0.06 +0.01    +1.500 Zn 
DOCKED: ATOM      6 O1   LIG A   1       2.182  -9.365  -3.148 +0.00 -0.00    -0.800 OA 
DOCKED: ATOM      7 O2   LIG A   1       2.689  -9.380  -5.853 +0.00 -0.00    -0.750 OA 
DOCKED: ATOM      8 O3   LIG A   1       4.744  -8.919  -4.250 +0.00 -0.00    -0.750 OA 
DOCKED: ATOM      9 O4   LIG A   1       3.429  -6.963  -3.139 +0.03 -0.00    -0.750 OA 
DOCKED: ATOM     10 O5   LIG A   1       1.352  -7.373  -4.763 +0.01 -0.00    -0.750 OA 
DOCKED: ATOM     11 O6   LIG A   1       3.828  -6.989  -5.788 +0.01 -0.00    -0.750 OA 
DOCKED: ATOM     12 O7   LIG A   1       4.250  -7.112  -8.354 +0.00 -0.00    -0.750 OA 
DOCKED: ATOM     13 O8   LIG A   1       5.158  -8.938  -6.943 +0.00 -0.00    -0.750 OA 
DOCKED: ATOM     14 O9   LIG A   1       1.716  -7.408  -7.353 +0.00 -0.00    -0.750 OA 
DOCKED: ATOM     15 O10  LIG A   1       2.483  -4.964  -4.644 +0.05 +0.01    -0.750 OA 
DOCKED: ATOM     16 O11  LIG A   1       2.983  -9.536  -8.493 +0.00 -0.00    -0.800 OA 
DOCKED: ATOM     17 O12  LIG A   1       7.252  -8.522  -5.280 +0.00 -0.01    -0.750 OA 
DOCKED: ATOM     18 O13  LIG A   1       4.466  -4.503  -2.865 +0.00 -0.01    -0.800 OA 
DOCKED: ATOM     19 O14  LIG A   1       0.341  -5.284  -6.191 +0.03 -0.01    -0.800 OA 
DOCKED: ATOM     20 V6   LIG A   1       4.456  -5.592  -7.241 +0.04 +0.01    +1.500 Zn 
DOCKED: ATOM     21 O15  LIG A   1       5.355  -4.643  -8.298 +0.01 -0.00    -0.750 OA 
DOCKED: ATOM     22 V7   LIG A   1       7.322  -5.237  -8.334 +0.02 +0.01    +1.500 Zn 
DOCKED: ATOM     23 O16  LIG A   1       7.917  -4.196  -9.401 +0.00 -0.00    -0.800 OA 
DOCKED: ATOM     24 O17  LIG A   1       7.410  -4.182  -6.695 +0.03 -0.01    -0.750 OA 
DOCKED: ATOM     25 V8   LIG A   1       6.784  -4.988  -5.298 +0.12 +0.08    +1.500 Zn 
DOCKED: ATOM     26 O18  LIG A   1       6.271  -6.573  -6.761 +0.01 -0.01    -0.750 OA 
DOCKED: ATOM     27 O19  LIG A   1       6.671  -6.599  -9.409 +0.00 -0.00    -0.750 OA 
DOCKED: ATOM     28 V9   LIG A   1       5.951  -8.006  -8.523 +0.00 +0.00    +1.500 Zn 
DOCKED: ATOM     29 V10  LIG A   1       8.356  -7.573  -6.647 +0.01 +0.01    +1.500 Zn 
DOCKED: ATOM     30 O20  LIG A   1       8.747  -6.189  -7.786 +0.01 -0.00    -0.750 OA 
DOCKED: ATOM     31 O21  LIG A   1       8.384  -6.154  -5.195 +0.02 -0.02    -0.750 OA 
DOCKED: ATOM     32 O22  LIG A   1       5.850  -6.449  -4.194 +0.03 -0.02    -0.750 OA 
DOCKED: ATOM     33 O23  LIG A   1       7.616  -8.598  -7.905 +0.00 -0.00    -0.750 OA 
DOCKED: ATOM     34 O24  LIG A   1       5.634  -9.059  -9.684 +0.00 -0.00    -0.800 OA 
DOCKED: ATOM     35 O25  LIG A   1       9.758  -8.278  -6.358 +0.00 -0.00    -0.800 OA 
DOCKED: ATOM     36 O26  LIG A   1       4.942  -4.623  -5.605 +0.03 -0.01    -0.750 OA 
DOCKED: ATOM     37 O27  LIG A   1       7.117  -4.027  -4.056 -0.57 -0.26    -0.800 OA 
DOCKED: ATOM     38 O28  LIG A   1       2.849  -5.041  -7.269 +0.02 -0.00    -0.750 OA 
DOCKED: ENDROOT
DOCKED: TORSDOF 0
DOCKED: TER
DOCKED: ENDMDL
________________________________________________________________________________


    FINAL DOCKED STATE:
    ________________________


Run:   11 / 20
Time taken for this run:   0.013s

DOCKED: MODEL        11
DOCKED: USER    Run = 11
DOCKED: USER
DOCKED: USER    Estimated Free Energy of Binding    =  +0.29 kcal/mol  [=(1)+(2)+(3)-(4)]
DOCKED: USER
DOCKED: USER    (1) Final Intermolecular Energy     =  +0.29 kcal/mol
DOCKED: USER        vdW + Hbond + desolv Energy     =  +0.25 kcal/mol
DOCKED: USER        Electrostatic Energy            =  +0.04 kcal/mol
DOCKED: USER        Moving Ligand-Fixed Receptor    =  +0.29 kcal/mol
DOCKED: USER        Moving Ligand-Moving Receptor   =  +0.00 kcal/mol
DOCKED: USER    (2) Final Total Internal Energy     =  +0.00 kcal/mol
DOCKED: USER    (3) Torsional Free Energy           =  +0.00 kcal/mol
DOCKED: USER    (4) Unbound System's Energy         =  +0.00 kcal/mol
DOCKED: USER
DOCKED: USER
DOCKED: USER                              x       y       z     vdW  Elec       q    Type
DOCKED: USER                           _______ _______ _______ _____ _____    ______ ____
DOCKED: ROOT
DOCKED: ATOM      1 V1   LIG A   1       0.880  -6.319   6.358 +0.01 -0.01    +1.500 Zn 
DOCKED: ATOM      2 V2   LIG A   1       2.177  -4.853   8.752 +0.00 -0.00    +1.500 Zn 
DOCKED: ATOM      3 V3   LIG A   1       3.808  -5.356   6.174 +0.01 -0.01    +1.500 Zn 
DOCKED: ATOM      4 V4   LIG A   1       3.162  -8.404   6.179 +0.00 -0.01    +1.500 Zn 
DOCKED: ATOM      5 V5   LIG A   1       1.518  -8.099   8.766 +0.00 -0.00    +1.500 Zn 
DOCKED: ATOM      6 O1   LIG A   1      -0.400  -5.966   5.458 +0.03 +0.02    -0.800 OA 
DOCKED: ATOM      7 O2   LIG A   1       0.867  -4.834   7.622 +0.01 +0.00    -0.750 OA 
DOCKED: ATOM      8 O3   LIG A   1       2.311  -5.173   5.431 +0.02 +0.01    -0.750 OA 
DOCKED: ATOM      9 O4   LIG A   1       1.677  -7.701   5.415 +0.00 +0.01    -0.750 OA 
DOCKED: ATOM     10 O5   LIG A   1       0.243  -7.405   7.645 +0.00 +0.00    -0.750 OA 
DOCKED: ATOM     11 O6   LIG A   1       2.831  -6.612   7.573 +0.00 +0.00    -0.750 OA 
DOCKED: ATOM     12 O7   LIG A   1       3.936  -5.459   9.629 +0.00 +0.00    -0.750 OA 
DOCKED: ATOM     13 O8   LIG A   1       3.493  -4.070   7.623 +0.01 +0.00    -0.750 OA 
DOCKED: ATOM     14 O9   LIG A   1       1.344  -6.340   9.765 +0.00 +0.00    -0.750 OA 
DOCKED: ATOM     15 O10  LIG A   1       2.190  -9.221   7.555 +0.00 +0.00    -0.750 OA 
DOCKED: ATOM     16 O11  LIG A   1       1.873  -3.665   9.791 +0.00 +0.00    -0.800 OA 
DOCKED: ATOM     17 O12  LIG A   1       4.932  -4.381   5.352 +0.04 +0.01    -0.750 OA 
DOCKED: ATOM     18 O13  LIG A   1       3.517  -9.647   5.238 +0.00 +0.00    -0.800 OA 
DOCKED: ATOM     19 O14  LIG A   1       0.715  -9.052   9.763 +0.00 +0.00    -0.800 OA 
DOCKED: ATOM     20 V6   LIG A   1       4.410  -7.132   8.874 +0.00 -0.00    +1.500 Zn 
DOCKED: ATOM     21 O15  LIG A   1       5.906  -7.314   9.619 +0.00 +0.00    -0.750 OA 
DOCKED: ATOM     22 V7   LIG A   1       7.338  -6.168   8.690 +0.00 -0.00    +1.500 Zn 
DOCKED: ATOM     23 O16  LIG A   1       8.617  -6.521   9.591 +0.00 +0.00    -0.800 OA 
DOCKED: ATOM     24 O17  LIG A   1       7.350  -7.654   7.426 +0.00 +0.00    -0.750 OA 
DOCKED: ATOM     25 V8   LIG A   1       6.041  -7.635   6.296 +0.00 -0.00    +1.500 Zn 
DOCKED: ATOM     26 O18  LIG A   1       5.386  -5.875   7.476 +0.00 +0.00    -0.750 OA 
DOCKED: ATOM     27 O19  LIG A   1       6.540  -4.786   9.634 +0.00 +0.00    -0.750 OA 
DOCKED: ATOM     28 V9   LIG A   1       5.055  -4.083   8.870 +0.00 -0.00    +1.500 Zn 
DOCKED: ATOM     29 V10  LIG A   1       6.699  -4.388   6.282 +0.05 -0.01    +1.500 Zn 
DOCKED: ATOM     30 O20  LIG A   1       7.974  -5.082   7.404 +0.00 +0.00    -0.750 OA 
DOCKED: ATOM     31 O21  LIG A   1       6.873  -6.148   5.283 +0.01 +0.01    -0.750 OA 
DOCKED: ATOM     32 O22  LIG A   1       4.282  -7.029   5.420 +0.00 +0.00    -0.750 OA 
DOCKED: ATOM     33 O23  LIG A   1       6.027  -3.266   7.494 +0.02 +0.00    -0.750 OA 
DOCKED: ATOM     34 O24  LIG A   1       4.700  -2.841   9.810 +0.00 +0.00    -0.800 OA 
DOCKED: ATOM     35 O25  LIG A   1       7.502  -3.435   5.286 +0.04 +0.01    -0.800 OA 
DOCKED: ATOM     36 O26  LIG A   1       4.725  -8.418   7.425 +0.00 +0.00    -0.750 OA 
DOCKED: ATOM     37 O27  LIG A   1       6.344  -8.821   5.258 +0.00 +0.00    -0.800 OA 
DOCKED: ATOM     38 O28  LIG A   1       3.286  -8.106   9.696 +0.00 +0.00    -0.750 OA 
DOCKED: ENDROOT
DOCKED: TORSDOF 0
DOCKED: TER
DOCKED: ENDMDL
________________________________________________________________________________


    FINAL DOCKED STATE:
    ________________________


Run:   12 / 20
Time taken for this run:   0.013s

DOCKED: MODEL        12
DOCKED: USER    Run = 12
DOCKED: USER
DOCKED: USER    Estimated Free Energy of Binding    =  +0.28 kcal/mol  [=(1)+(2)+(3)-(4)]
DOCKED: USER
DOCKED: USER    (1) Final Intermolecular Energy     =  +0.28 kcal/mol
DOCKED: USER        vdW + Hbond + desolv Energy     =  +0.25 kcal/mol
DOCKED: USER        Electrostatic Energy            =  +0.02 kcal/mol
DOCKED: USER        Moving Ligand-Fixed Receptor    =  +0.28 kcal/mol
DOCKED: USER        Moving Ligand-Moving Receptor   =  +0.00 kcal/mol
DOCKED: USER    (2) Final Total Internal Energy     =  +0.00 kcal/mol
DOCKED: USER    (3) Torsional Free Energy           =  +0.00 kcal/mol
DOCKED: USER    (4) Unbound System's Energy         =  +0.00 kcal/mol
DOCKED: USER
DOCKED: USER
DOCKED: USER                              x       y       z     vdW  Elec       q    Type
DOCKED: USER                           _______ _______ _______ _____ _____    ______ ____
DOCKED: ROOT
DOCKED: ATOM      1 V1   LIG A   1      -0.626   8.778  -6.123 +0.00 -0.01    +1.500 Zn 
DOCKED: ATOM      2 V2   LIG A   1      -1.870   6.425  -7.698 +0.00 -0.00    +1.500 Zn 
DOCKED: ATOM      3 V3   LIG A   1      -3.593   8.887  -6.968 +0.00 -0.00    +1.500 Zn 
DOCKED: ATOM      4 V4   LIG A   1      -2.832   8.716  -3.951 +0.00 -0.00    +1.500 Zn 
DOCKED: ATOM      5 V5   LIG A   1      -1.088   6.233  -4.485 +0.06 -0.01    +1.500 Zn 
DOCKED: ATOM      6 O1   LIG A   1       0.599   9.758  -6.461 +0.00 +0.00    -0.800 OA 
DOCKED: ATOM      7 O2   LIG A   1      -0.614   7.615  -7.688 +0.00 +0.00    -0.750 OA 
DOCKED: ATOM      8 O3   LIG A   1      -2.139   9.710  -7.153 +0.00 +0.00    -0.750 OA 
DOCKED: ATOM      9 O4   LIG A   1      -1.410   9.592  -4.654 +0.00 +0.00    -0.750 OA 
DOCKED: ATOM     10 O5   LIG A   1       0.109   7.455  -5.148 +0.01 +0.01    -0.750 OA 
DOCKED: ATOM     11 O6   LIG A   1      -2.508   7.457  -5.842 +0.00 +0.00    -0.750 OA 
DOCKED: ATOM     12 O7   LIG A   1      -3.564   5.431  -7.089 +0.00 -0.00    -0.750 OA 
DOCKED: ATOM     13 O8   LIG A   1      -3.264   7.540  -8.357 +0.00 -0.00    -0.750 OA 
DOCKED: ATOM     14 O9   LIG A   1      -0.937   5.359  -6.311 +0.02 +0.00    -0.750 OA 
DOCKED: ATOM     15 O10  LIG A   1      -1.769   7.337  -3.262 +0.01 +0.00    -0.750 OA 
DOCKED: ATOM     16 O11  LIG A   1      -1.566   5.480  -8.961 +0.00 -0.00    -0.800 OA 
DOCKED: ATOM     17 O12  LIG A   1      -4.789   9.717  -7.846 +0.00 -0.00    -0.750 OA 
DOCKED: ATOM     18 O13  LIG A   1      -3.181   9.557  -2.637 +0.00 +0.00    -0.800 OA 
DOCKED: ATOM     19 O14  LIG A   1      -0.205   5.215  -3.629 +0.04 +0.02    -0.800 OA 
DOCKED: ATOM     20 V6   LIG A   1      -4.006   6.053  -5.354 +0.03 +0.00    +1.500 Zn 
DOCKED: ATOM     21 O15  LIG A   1      -5.461   5.229  -5.169 +0.02 +0.00    -0.750 OA 
DOCKED: ATOM     22 V7   LIG A   1      -6.974   6.162  -6.200 +0.01 -0.00    +1.500 Zn 
DOCKED: ATOM     23 O16  LIG A   1      -8.198   5.181  -5.862 +0.01 +0.00    -0.800 OA 
DOCKED: ATOM     24 O17  LIG A   1      -6.986   7.325  -4.634 +0.00 +0.00    -0.750 OA 
DOCKED: ATOM     25 V8   LIG A   1      -5.730   8.514  -4.625 +0.00 +0.00    +1.500 Zn 
DOCKED: ATOM     26 O18  LIG A   1      -5.091   7.482  -6.480 +0.00 -0.00    -0.750 OA 
DOCKED: ATOM     27 O19  LIG A   1      -6.190   5.348  -7.668 +0.00 +0.00    -0.750 OA 
DOCKED: ATOM     28 V9   LIG A   1      -4.768   6.224  -8.371 +0.00 +0.00    +1.500 Zn 
DOCKED: ATOM     29 V10  LIG A   1      -6.512   8.707  -7.838 +0.00 +0.00    +1.500 Zn 
DOCKED: ATOM     30 O20  LIG A   1      -7.708   7.484  -7.175 +0.00 +0.00    -0.750 OA 
DOCKED: ATOM     31 O21  LIG A   1      -6.663   9.581  -6.011 +0.00 -0.00    -0.750 OA 
DOCKED: ATOM     32 O22  LIG A   1      -4.036   9.509  -5.233 +0.00 +0.00    -0.750 OA 
DOCKED: ATOM     33 O23  LIG A   1      -5.830   7.602  -9.061 +0.00 -0.00    -0.750 OA 
DOCKED: ATOM     34 O24  LIG A   1      -4.419   5.383  -9.685 +0.00 -0.00    -0.800 OA 
DOCKED: ATOM     35 O25  LIG A   1      -7.394   9.724  -8.694 +0.00 -0.00    -0.800 OA 
DOCKED: ATOM     36 O26  LIG A   1      -4.336   7.400  -3.965 +0.00 -0.00    -0.750 OA 
DOCKED: ATOM     37 O27  LIG A   1      -6.033   9.459  -3.362 +0.00 -0.00    -0.800 OA 
DOCKED: ATOM     38 O28  LIG A   1      -2.811   5.223  -4.477 +0.03 -0.01    -0.750 OA 
DOCKED: ENDROOT
DOCKED: TORSDOF 0
DOCKED: TER
DOCKED: ENDMDL
________________________________________________________________________________


    FINAL DOCKED STATE:
    ________________________


Run:   13 / 20
Time taken for this run:   0.013s

DOCKED: MODEL        13
DOCKED: USER    Run = 13
DOCKED: USER
DOCKED: USER    Estimated Free Energy of Binding    =  -0.19 kcal/mol  [=(1)+(2)+(3)-(4)]
DOCKED: USER
DOCKED: USER    (1) Final Intermolecular Energy     =  -0.19 kcal/mol
DOCKED: USER        vdW + Hbond + desolv Energy     =  +0.11 kcal/mol
DOCKED: USER        Electrostatic Energy            =  -0.30 kcal/mol
DOCKED: USER        Moving Ligand-Fixed Receptor    =  -0.19 kcal/mol
DOCKED: USER        Moving Ligand-Moving Receptor   =  +0.00 kcal/mol
DOCKED: USER    (2) Final Total Internal Energy     =  +0.00 kcal/mol
DOCKED: USER    (3) Torsional Free Energy           =  +0.00 kcal/mol
DOCKED: USER    (4) Unbound System's Energy         =  +0.00 kcal/mol
DOCKED: USER
DOCKED: USER
DOCKED: USER                              x       y       z     vdW  Elec       q    Type
DOCKED: USER                           _______ _______ _______ _____ _____    ______ ____
DOCKED: ROOT
DOCKED: ATOM      1 V1   LIG A   1       7.425  -6.591  -7.385 +0.02 +0.01    +1.500 Zn 
DOCKED: ATOM      2 V2   LIG A   1       5.583  -7.896  -5.270 +0.02 +0.01    +1.500 Zn 
DOCKED: ATOM      3 V3   LIG A   1       4.514  -7.319  -8.114 +0.00 +0.01    +1.500 Zn 
DOCKED: ATOM      4 V4   LIG A   1       5.398  -4.333  -8.006 +0.05 +0.00    +1.500 Zn 
DOCKED: ATOM      5 V5   LIG A   1       6.495  -4.713  -5.152 +0.14 +0.10    +1.500 Zn 
DOCKED: ATOM      6 O1   LIG A   1       8.818  -7.065  -8.024 +0.00 -0.00    -0.800 OA 
DOCKED: ATOM      7 O2   LIG A   1       7.076  -8.044  -6.132 +0.00 -0.01    -0.750 OA 
DOCKED: ATOM      8 O3   LIG A   1       6.104  -7.637  -8.559 +0.00 -0.00    -0.750 OA 
DOCKED: ATOM      9 O4   LIG A   1       6.937  -5.170  -8.470 +0.01 -0.00    -0.750 OA 
DOCKED: ATOM     10 O5   LIG A   1       7.896  -5.532  -6.007 +0.02 -0.02    -0.750 OA 
DOCKED: ATOM     11 O6   LIG A   1       5.311  -6.116  -6.563 +0.02 -0.01    -0.750 OA 
DOCKED: ATOM     12 O7   LIG A   1       3.748  -7.131  -4.747 +0.02 -0.01    -0.750 OA 
DOCKED: ATOM     13 O8   LIG A   1       4.443  -8.595  -6.624 +0.00 -0.00    -0.750 OA 
DOCKED: ATOM     14 O9   LIG A   1       6.331  -6.458  -4.127 +0.03 -0.03    -0.750 OA 
DOCKED: ATOM     15 O10  LIG A   1       6.158  -3.567  -6.475 +0.02 -0.00    -0.750 OA 
DOCKED: ATOM     16 O11  LIG A   1       5.587  -9.081  -4.185 +0.00 -0.00    -0.800 OA 
DOCKED: ATOM     17 O12  LIG A   1       3.488  -8.219  -9.128 +0.00 -0.00    -0.750 OA 
DOCKED: ATOM     18 O13  LIG A   1       5.331  -3.087  -9.004 +0.02 +0.00    -0.800 OA 
DOCKED: ATOM     19 O14  LIG A   1       7.172  -3.807  -4.026 -0.58 -0.32    -0.800 OA 
DOCKED: ATOM     20 V6   LIG A   1       3.565  -5.442  -5.587 +0.10 +0.01    +1.500 Zn 
DOCKED: ATOM     21 O15  LIG A   1       1.975  -5.125  -5.141 +0.05 +0.00    -0.750 OA 
DOCKED: ATOM     22 V7   LIG A   1       0.654  -6.172  -6.317 +0.04 +0.01    +1.500 Zn 
DOCKED: ATOM     23 O16  LIG A   1      -0.739  -5.697  -5.676 +0.04 -0.02    -0.800 OA 
DOCKED: ATOM     24 O17  LIG A   1       1.003  -4.718  -7.569 +0.02 -0.00    -0.750 OA 
DOCKED: ATOM     25 V8   LIG A   1       2.495  -4.866  -8.431 +0.02 +0.01    +1.500 Zn 
DOCKED: ATOM     26 O18  LIG A   1       2.768  -6.647  -7.137 +0.01 -0.00    -0.750 OA 
DOCKED: ATOM     27 O19  LIG A   1       1.142  -7.592  -5.231 +0.01 -0.00    -0.750 OA 
DOCKED: ATOM     28 V9   LIG A   1       2.680  -8.428  -5.695 +0.00 +0.01    +1.500 Zn 
DOCKED: ATOM     29 V10  LIG A   1       1.584  -8.049  -8.549 +0.00 +0.00    +1.500 Zn 
DOCKED: ATOM     30 O20  LIG A   1       0.183  -7.230  -7.693 +0.00 -0.00    -0.750 OA 
DOCKED: ATOM     31 O21  LIG A   1       1.747  -6.303  -9.574 +0.00 -0.00    -0.750 OA 
DOCKED: ATOM     32 O22  LIG A   1       4.331  -5.631  -8.955 +0.00 -0.00    -0.750 OA 
DOCKED: ATOM     33 O23  LIG A   1       1.921  -9.195  -7.225 +0.00 -0.00    -0.750 OA 
DOCKED: ATOM     34 O24  LIG A   1       2.748  -9.675  -4.697 +0.00 -0.00    -0.800 OA 
DOCKED: ATOM     35 O25  LIG A   1       0.907  -8.956  -9.674 +0.00 -0.00    -0.800 OA 
DOCKED: ATOM     36 O26  LIG A   1       3.636  -4.167  -7.078 +0.03 -0.00    -0.750 OA 
DOCKED: ATOM     37 O27  LIG A   1       2.492  -3.682  -9.515 +0.01 -0.00    -0.800 OA 
DOCKED: ATOM     38 O28  LIG A   1       4.590  -4.544  -4.573 +0.01 -0.02    -0.750 OA 
DOCKED: ENDROOT
DOCKED: TORSDOF 0
DOCKED: TER
DOCKED: ENDMDL
________________________________________________________________________________


    FINAL DOCKED STATE:
    ________________________


Run:   14 / 20
Time taken for this run:   0.013s

DOCKED: MODEL        14
DOCKED: USER    Run = 14
DOCKED: USER
DOCKED: USER    Estimated Free Energy of Binding    =  +0.21 kcal/mol  [=(1)+(2)+(3)-(4)]
DOCKED: USER
DOCKED: USER    (1) Final Intermolecular Energy     =  +0.21 kcal/mol
DOCKED: USER        vdW + Hbond + desolv Energy     =  +0.20 kcal/mol
DOCKED: USER        Electrostatic Energy            =  +0.01 kcal/mol
DOCKED: USER        Moving Ligand-Fixed Receptor    =  +0.21 kcal/mol
DOCKED: USER        Moving Ligand-Moving Receptor   =  +0.00 kcal/mol
DOCKED: USER    (2) Final Total Internal Energy     =  +0.00 kcal/mol
DOCKED: USER    (3) Torsional Free Energy           =  +0.00 kcal/mol
DOCKED: USER    (4) Unbound System's Energy         =  +0.00 kcal/mol
DOCKED: USER
DOCKED: USER
DOCKED: USER                              x       y       z     vdW  Elec       q    Type
DOCKED: USER                           _______ _______ _______ _____ _____    ______ ____
DOCKED: ROOT
DOCKED: ATOM      1 V1   LIG A   1      -8.649   5.418  -6.303 +0.01 -0.00    +1.500 Zn 
DOCKED: ATOM      2 V2   LIG A   1      -6.449   5.203  -8.466 +0.00 -0.00    +1.500 Zn 
DOCKED: ATOM      3 V3   LIG A   1      -5.685   5.811  -5.532 +0.03 -0.00    +1.500 Zn 
DOCKED: ATOM      4 V4   LIG A   1      -7.678   8.200  -5.349 +0.00 +0.00    +1.500 Zn 
DOCKED: ATOM      5 V5   LIG A   1      -8.545   7.761  -8.273 +0.00 +0.00    +1.500 Zn 
DOCKED: ATOM      6 O1   LIG A   1      -9.739   4.363  -5.782 +0.02 +0.00    -0.800 OA 
DOCKED: ATOM      7 O2   LIG A   1      -7.758   4.379  -7.692 +0.00 +0.00    -0.750 OA 
DOCKED: ATOM      8 O3   LIG A   1      -7.018   4.844  -5.195 +0.02 +0.01    -0.750 OA 
DOCKED: ATOM      9 O4   LIG A   1      -8.759   6.777  -5.048 +0.00 +0.00    -0.750 OA 
DOCKED: ATOM     10 O5   LIG A   1      -9.505   6.362  -7.575 +0.00 +0.00    -0.750 OA 
DOCKED: ATOM     11 O6   LIG A   1      -6.899   6.780  -6.975 +0.00 +0.00    -0.750 OA 
DOCKED: ATOM     12 O7   LIG A   1      -5.067   6.683  -8.821 +0.00 -0.00    -0.750 OA 
DOCKED: ATOM     13 O8   LIG A   1      -5.121   4.853  -7.149 +0.00 +0.00    -0.750 OA 
DOCKED: ATOM     14 O9   LIG A   1      -7.708   6.355  -9.476 +0.00 -0.00    -0.750 OA 
DOCKED: ATOM     15 O10  LIG A   1      -8.684   8.781  -6.818 +0.00 -0.00    -0.750 OA 
DOCKED: ATOM     16 O11  LIG A   1      -5.987   4.249  -9.674 +0.00 +0.00    -0.800 OA 
DOCKED: ATOM     17 O12  LIG A   1      -4.384   5.275  -4.579 +0.03 -0.00    -0.750 OA 
DOCKED: ATOM     18 O13  LIG A   1      -8.106   9.245  -4.218 +0.00 -0.00    -0.800 OA 
DOCKED: ATOM     19 O14  LIG A   1      -9.529   8.455  -9.320 +0.00 -0.00    -0.800 OA 
DOCKED: ATOM     20 V6   LIG A   1      -5.564   8.196  -7.793 +0.00 +0.00    +1.500 Zn 
DOCKED: ATOM     21 O15  LIG A   1      -4.231   9.163  -8.131 +0.00 -0.00    -0.750 OA 
DOCKED: ATOM     22 V7   LIG A   1      -2.599   8.588  -7.021 +0.00 -0.00    +1.500 Zn 
DOCKED: ATOM     23 O16  LIG A   1      -1.510   9.643  -7.543 +0.00 +0.00    -0.800 OA 
DOCKED: ATOM     24 O17  LIG A   1      -3.491   9.628  -5.633 +0.00 +0.00    -0.750 OA 
DOCKED: ATOM     25 V8   LIG A   1      -4.800   8.804  -4.859 +0.00 -0.00    +1.500 Zn 
DOCKED: ATOM     26 O18  LIG A   1      -4.350   7.227  -6.351 +0.00 -0.00    -0.750 OA 
DOCKED: ATOM     27 O19  LIG A   1      -2.490   7.230  -8.277 +0.00 +0.00    -0.750 OA 
DOCKED: ATOM     28 V9   LIG A   1      -3.571   5.807  -7.975 +0.00 +0.00    +1.500 Zn 
DOCKED: ATOM     29 V10  LIG A   1      -2.704   6.246  -5.052 +0.03 +0.00    +1.500 Zn 
DOCKED: ATOM     30 O20  LIG A   1      -1.744   7.645  -5.750 +0.00 +0.00    -0.750 OA 
DOCKED: ATOM     31 O21  LIG A   1      -3.541   7.652  -3.849 +0.00 +0.00    -0.750 OA 
DOCKED: ATOM     32 O22  LIG A   1      -6.182   7.324  -4.503 +0.00 +0.00    -0.750 OA 
DOCKED: ATOM     33 O23  LIG A   1      -2.565   5.226  -6.508 +0.01 -0.00    -0.750 OA 
DOCKED: ATOM     34 O24  LIG A   1      -3.143   4.762  -9.107 +0.00 -0.00    -0.800 OA 
DOCKED: ATOM     35 O25  LIG A   1      -1.720   5.552  -4.005 +0.03 -0.00    -0.800 OA 
DOCKED: ATOM     36 O26  LIG A   1      -6.128   9.154  -6.175 +0.00 -0.00    -0.750 OA 
DOCKED: ATOM     37 O27  LIG A   1      -5.262   9.757  -3.651 +0.00 +0.00    -0.800 OA 
DOCKED: ATOM     38 O28  LIG A   1      -6.864   8.732  -8.745 +0.00 -0.00    -0.750 OA 
DOCKED: ENDROOT
DOCKED: TORSDOF 0
DOCKED: TER
DOCKED: ENDMDL
________________________________________________________________________________


    FINAL DOCKED STATE:
    ________________________


Run:   15 / 20
Time taken for this run:   0.013s

DOCKED: MODEL        15
DOCKED: USER    Run = 15
DOCKED: USER
DOCKED: USER    Estimated Free Energy of Binding    =  +0.35 kcal/mol  [=(1)+(2)+(3)-(4)]
DOCKED: USER
DOCKED: USER    (1) Final Intermolecular Energy     =  +0.35 kcal/mol
DOCKED: USER        vdW + Hbond + desolv Energy     =  +0.34 kcal/mol
DOCKED: USER        Electrostatic Energy            =  +0.01 kcal/mol
DOCKED: USER        Moving Ligand-Fixed Receptor    =  +0.35 kcal/mol
DOCKED: USER        Moving Ligand-Moving Receptor   =  +0.00 kcal/mol
DOCKED: USER    (2) Final Total Internal Energy     =  +0.00 kcal/mol
DOCKED: USER    (3) Torsional Free Energy           =  +0.00 kcal/mol
DOCKED: USER    (4) Unbound System's Energy         =  +0.00 kcal/mol
DOCKED: USER
DOCKED: USER
DOCKED: USER                              x       y       z     vdW  Elec       q    Type
DOCKED: USER                           _______ _______ _______ _____ _____    ______ ____
DOCKED: ROOT
DOCKED: ATOM      1 V1   LIG A   1      -1.588   6.365  -8.223 +0.00 +0.00    +1.500 Zn 
DOCKED: ATOM      2 V2   LIG A   1      -2.987   5.222  -5.712 +0.04 +0.01    +1.500 Zn 
DOCKED: ATOM      3 V3   LIG A   1      -4.570   5.573  -8.346 +0.00 +0.00    +1.500 Zn 
DOCKED: ATOM      4 V4   LIG A   1      -3.732   8.561  -8.629 +0.00 +0.00    +1.500 Zn 
DOCKED: ATOM      5 V5   LIG A   1      -2.125   8.407  -6.005 +0.00 -0.00    +1.500 Zn 
DOCKED: ATOM      6 O1   LIG A   1      -0.328   5.847  -9.069 +0.00 +0.00    -0.800 OA 
DOCKED: ATOM      7 O2   LIG A   1      -1.676   5.012  -6.821 +0.01 -0.00    -0.750 OA 
DOCKED: ATOM      8 O3   LIG A   1      -3.083   5.226  -9.051 +0.00 -0.00    -0.750 OA 
DOCKED: ATOM      9 O4   LIG A   1      -2.291   7.696  -9.304 +0.00 +0.00    -0.750 OA 
DOCKED: ATOM     10 O5   LIG A   1      -0.890   7.529  -7.039 +0.00 +0.00    -0.750 OA 
DOCKED: ATOM     11 O6   LIG A   1      -3.522   6.896  -7.064 +0.00 -0.00    -0.750 OA 
DOCKED: ATOM     12 O7   LIG A   1      -4.709   6.019  -4.919 +0.01 -0.00    -0.750 OA 
DOCKED: ATOM     13 O8   LIG A   1      -4.344   4.417  -6.776 +0.01 -0.00    -0.750 OA 
DOCKED: ATOM     14 O9   LIG A   1      -2.068   6.746  -4.839 +0.01 +0.00    -0.750 OA 
DOCKED: ATOM     15 O10  LIG A   1      -2.718   9.446  -7.327 +0.00 +0.00    -0.750 OA 
DOCKED: ATOM     16 O11  LIG A   1      -2.765   4.125  -4.560 +0.07 -0.02    -0.800 OA 
DOCKED: ATOM     17 O12  LIG A   1      -5.749   4.595  -9.083 +0.00 +0.00    -0.750 OA 
DOCKED: ATOM     18 O13  LIG A   1      -4.004   9.726  -9.689 +0.00 -0.00    -0.800 OA 
DOCKED: ATOM     19 O14  LIG A   1      -1.268   9.401  -5.096 +0.00 +0.00    -0.800 OA 
DOCKED: ATOM     20 V6   LIG A   1      -5.072   7.637  -5.837 +0.00 +0.00    +1.500 Zn 
DOCKED: ATOM     21 O15  LIG A   1      -6.558   7.984  -5.131 +0.00 -0.00    -0.750 OA 
DOCKED: ATOM     22 V7   LIG A   1      -8.054   6.845  -5.961 +0.00 -0.00    +1.500 Zn 
DOCKED: ATOM     23 O16  LIG A   1      -9.314   7.363  -5.113 +0.00 -0.00    -0.800 OA 
DOCKED: ATOM     24 O17  LIG A   1      -7.966   8.198  -7.363 +0.00 -0.00    -0.750 OA 
DOCKED: ATOM     25 V8   LIG A   1      -6.654   7.988  -8.471 +0.00 +0.00    +1.500 Zn 
DOCKED: ATOM     26 O18  LIG A   1      -6.119   6.314  -7.118 +0.00 +0.00    -0.750 OA 
DOCKED: ATOM     27 O19  LIG A   1      -7.351   5.514  -4.879 +0.02 +0.00    -0.750 OA 
DOCKED: ATOM     28 V9   LIG A   1      -5.909   4.649  -5.554 +0.08 -0.01    +1.500 Zn 
DOCKED: ATOM     29 V10  LIG A   1      -7.517   4.803  -8.178 +0.00 -0.00    +1.500 Zn 
DOCKED: ATOM     30 O20  LIG A   1      -8.751   5.681  -7.143 +0.00 +0.00    -0.750 OA 
DOCKED: ATOM     31 O21  LIG A   1      -7.574   6.464  -9.344 +0.00 -0.00    -0.750 OA 
DOCKED: ATOM     32 O22  LIG A   1      -4.933   7.191  -9.264 +0.00 -0.00    -0.750 OA 
DOCKED: ATOM     33 O23  LIG A   1      -6.923   3.764  -6.855 +0.02 +0.01    -0.750 OA 
DOCKED: ATOM     34 O24  LIG A   1      -5.638   3.484  -4.494 +0.05 +0.01    -0.800 OA 
DOCKED: ATOM     35 O25  LIG A   1      -8.373   3.810  -9.087 +0.00 +0.00    -0.800 OA 
DOCKED: ATOM     36 O26  LIG A   1      -5.298   8.793  -7.407 +0.00 -0.00    -0.750 OA 
DOCKED: ATOM     37 O27  LIG A   1      -6.877   9.084  -9.622 +0.00 -0.00    -0.800 OA 
DOCKED: ATOM     38 O28  LIG A   1      -3.894   8.615  -5.100 +0.00 +0.00    -0.750 OA 
DOCKED: ENDROOT
DOCKED: TORSDOF 0
DOCKED: TER
DOCKED: ENDMDL
________________________________________________________________________________


    FINAL DOCKED STATE:
    ________________________


Run:   16 / 20
Time taken for this run:   0.013s

DOCKED: MODEL        16
DOCKED: USER    Run = 16
DOCKED: USER
DOCKED: USER    Estimated Free Energy of Binding    =  +0.25 kcal/mol  [=(1)+(2)+(3)-(4)]
DOCKED: USER
DOCKED: USER    (1) Final Intermolecular Energy     =  +0.25 kcal/mol
DOCKED: USER        vdW + Hbond + desolv Energy     =  +0.23 kcal/mol
DOCKED: USER        Electrostatic Energy            =  +0.02 kcal/mol
DOCKED: USER        Moving Ligand-Fixed Receptor    =  +0.25 kcal/mol
DOCKED: USER        Moving Ligand-Moving Receptor   =  +0.00 kcal/mol
DOCKED: USER    (2) Final Total Internal Energy     =  +0.00 kcal/mol
DOCKED: USER    (3) Torsional Free Energy           =  +0.00 kcal/mol
DOCKED: USER    (4) Unbound System's Energy         =  +0.00 kcal/mol
DOCKED: USER
DOCKED: USER
DOCKED: USER                              x       y       z     vdW  Elec       q    Type
DOCKED: USER                           _______ _______ _______ _____ _____    ______ ____
DOCKED: ROOT
DOCKED: ATOM      1 V1   LIG A   1      -8.073   4.849  -6.162 +0.03 -0.01    +1.500 Zn 
DOCKED: ATOM      2 V2   LIG A   1      -6.136   4.234  -8.493 +0.01 -0.00    +1.500 Zn 
DOCKED: ATOM      3 V3   LIG A   1      -5.068   5.502  -5.882 +0.03 -0.00    +1.500 Zn 
DOCKED: ATOM      4 V4   LIG A   1      -7.167   7.803  -5.963 +0.00 -0.00    +1.500 Zn 
DOCKED: ATOM      5 V5   LIG A   1      -8.346   6.700  -8.587 +0.00 -0.00    +1.500 Zn 
DOCKED: ATOM      6 O1   LIG A   1      -9.027   3.900  -5.290 +0.03 +0.01    -0.800 OA 
DOCKED: ATOM      7 O2   LIG A   1      -7.291   3.558  -7.397 +0.01 +0.00    -0.750 OA 
DOCKED: ATOM      8 O3   LIG A   1      -6.291   4.589  -5.176 +0.03 +0.01    -0.750 OA 
DOCKED: ATOM      9 O4   LIG A   1      -8.116   6.448  -5.225 +0.00 +0.00    -0.750 OA 
DOCKED: ATOM     10 O5   LIG A   1      -9.130   5.459  -7.486 +0.00 +0.00    -0.750 OA 
DOCKED: ATOM     11 O6   LIG A   1      -6.501   6.086  -7.331 +0.00 +0.00    -0.750 OA 
DOCKED: ATOM     12 O7   LIG A   1      -4.898   5.645  -9.334 +0.00 -0.00    -0.750 OA 
DOCKED: ATOM     13 O8   LIG A   1      -4.642   4.229  -7.314 +0.01 +0.00    -0.750 OA 
DOCKED: ATOM     14 O9   LIG A   1      -7.573   5.091  -9.556 +0.00 +0.00    -0.750 OA 
DOCKED: ATOM     15 O10  LIG A   1      -8.374   8.012  -7.380 +0.00 -0.00    -0.750 OA 
DOCKED: ATOM     16 O11  LIG A   1      -5.763   3.053  -9.517 +0.00 +0.00    -0.800 OA 
DOCKED: ATOM     17 O12  LIG A   1      -3.633   5.233  -5.012 +0.03 -0.00    -0.750 OA 
DOCKED: ATOM     18 O13  LIG A   1      -7.520   9.058  -5.037 +0.00 -0.00    -0.800 OA 
DOCKED: ATOM     19 O14  LIG A   1      -9.488   7.111  -9.623 +0.00 -0.00    -0.800 OA 
DOCKED: ATOM     20 V6   LIG A   1      -5.361   7.330  -8.600 +0.00 +0.00    +1.500 Zn 
DOCKED: ATOM     21 O15  LIG A   1      -4.139   8.242  -9.308 +0.00 -0.00    -0.750 OA 
DOCKED: ATOM     22 V7   LIG A   1      -2.355   7.982  -8.320 +0.00 -0.00    +1.500 Zn 
DOCKED: ATOM     23 O16  LIG A   1      -1.402   8.931  -9.193 +0.00 +0.00    -0.800 OA 
DOCKED: ATOM     24 O17  LIG A   1      -3.138   9.273  -7.085 +0.00 +0.00    -0.750 OA 
DOCKED: ATOM     25 V8   LIG A   1      -4.293   8.597  -5.989 +0.00 +0.00    +1.500 Zn 
DOCKED: ATOM     26 O18  LIG A   1      -3.928   6.745  -7.152 +0.00 -0.00    -0.750 OA 
DOCKED: ATOM     27 O19  LIG A   1      -2.313   6.384  -9.257 +0.00 -0.00    -0.750 OA 
DOCKED: ATOM     28 V9   LIG A   1      -3.262   5.028  -8.520 +0.00 +0.00    +1.500 Zn 
DOCKED: ATOM     29 V10  LIG A   1      -2.083   6.132  -5.896 +0.02 +0.00    +1.500 Zn 
DOCKED: ATOM     30 O20  LIG A   1      -1.299   7.372  -6.997 +0.00 +0.00    -0.750 OA 
DOCKED: ATOM     31 O21  LIG A   1      -2.856   7.740  -4.926 +0.00 +0.00    -0.750 OA 
DOCKED: ATOM     32 O22  LIG A   1      -5.531   7.187  -5.148 +0.00 -0.00    -0.750 OA 
DOCKED: ATOM     33 O23  LIG A   1      -2.056   4.819  -7.103 +0.01 -0.00    -0.750 OA 
DOCKED: ATOM     34 O24  LIG A   1      -2.909   3.773  -9.445 +0.00 -0.00    -0.800 OA 
DOCKED: ATOM     35 O25  LIG A   1      -0.941   5.720  -4.860 +0.03 +0.00    -0.800 OA 
DOCKED: ATOM     36 O26  LIG A   1      -5.787   8.602  -7.168 +0.00 -0.00    -0.750 OA 
DOCKED: ATOM     37 O27  LIG A   1      -4.666   9.778  -4.966 +0.00 +0.00    -0.800 OA 
DOCKED: ATOM     38 O28  LIG A   1      -6.795   7.598  -9.470 +0.00 -0.00    -0.750 OA 
DOCKED: ENDROOT
DOCKED: TORSDOF 0
DOCKED: TER
DOCKED: ENDMDL
________________________________________________________________________________


    FINAL DOCKED STATE:
    ________________________


Run:   17 / 20
Time taken for this run:   0.013s

DOCKED: MODEL        17
DOCKED: USER    Run = 17
DOCKED: USER
DOCKED: USER    Estimated Free Energy of Binding    =  -0.20 kcal/mol  [=(1)+(2)+(3)-(4)]
DOCKED: USER
DOCKED: USER    (1) Final Intermolecular Energy     =  -0.20 kcal/mol
DOCKED: USER        vdW + Hbond + desolv Energy     =  +0.09 kcal/mol
DOCKED: USER        Electrostatic Energy            =  -0.30 kcal/mol
DOCKED: USER        Moving Ligand-Fixed Receptor    =  -0.20 kcal/mol
DOCKED: USER        Moving Ligand-Moving Receptor   =  +0.00 kcal/mol
DOCKED: USER    (2) Final Total Internal Energy     =  +0.00 kcal/mol
DOCKED: USER    (3) Torsional Free Energy           =  +0.00 kcal/mol
DOCKED: USER    (4) Unbound System's Energy         =  +0.00 kcal/mol
DOCKED: USER
DOCKED: USER
DOCKED: USER                              x       y       z     vdW  Elec       q    Type
DOCKED: USER                           _______ _______ _______ _____ _____    ______ ____
DOCKED: ROOT
DOCKED: ATOM      1 V1   LIG A   1       6.475  -4.750  -5.095 +0.14 +0.10    +1.500 Zn 
DOCKED: ATOM      2 V2   LIG A   1       5.187  -4.332  -7.875 +0.06 +0.00    +1.500 Zn 
DOCKED: ATOM      3 V3   LIG A   1       3.509  -5.479  -5.545 +0.10 +0.01    +1.500 Zn 
DOCKED: ATOM      4 V4   LIG A   1       5.594  -7.715  -4.942 +0.02 +0.02    +1.500 Zn 
DOCKED: ATOM      5 V5   LIG A   1       7.385  -6.729  -7.247 +0.02 +0.01    +1.500 Zn 
DOCKED: ATOM      6 O1   LIG A   1       7.161  -3.722  -4.072 -0.59 -0.32    -0.800 OA 
DOCKED: ATOM      7 O2   LIG A   1       6.014  -3.558  -6.568 +0.02 -0.00    -0.750 OA 
DOCKED: ATOM      8 O3   LIG A   1       4.496  -4.489  -4.611 +0.01 -0.01    -0.750 OA 
DOCKED: ATOM      9 O4   LIG A   1       6.303  -6.289  -4.077 +0.03 -0.03    -0.750 OA 
DOCKED: ATOM     10 O5   LIG A   1       7.844  -5.403  -6.066 +0.02 -0.02    -0.750 OA 
DOCKED: ATOM     11 O6   LIG A   1       5.272  -6.101  -6.542 +0.02 -0.01    -0.750 OA 
DOCKED: ATOM     12 O7   LIG A   1       4.226  -5.828  -8.910 +0.00 -0.00    -0.750 OA 
DOCKED: ATOM     13 O8   LIG A   1       3.442  -4.306  -7.116 +0.03 -0.00    -0.750 OA 
DOCKED: ATOM     14 O9   LIG A   1       6.861  -5.205  -8.481 +0.01 -0.00    -0.750 OA 
DOCKED: ATOM     15 O10  LIG A   1       7.125  -7.967  -5.991 +0.01 -0.01    -0.750 OA 
DOCKED: ATOM     16 O11  LIG A   1       5.069  -3.225  -9.034 +0.02 +0.00    -0.800 OA 
DOCKED: ATOM     17 O12  LIG A   1       1.895  -5.205  -5.086 +0.05 -0.00    -0.750 OA 
DOCKED: ATOM     18 O13  LIG A   1       5.719  -8.901  -3.879 +0.00 -0.00    -0.800 OA 
DOCKED: ATOM     19 O14  LIG A   1       8.760  -7.164  -7.931 +0.00 -0.00    -0.800 OA 
DOCKED: ATOM     20 V6   LIG A   1       4.512  -7.452  -7.976 +0.00 +0.01    +1.500 Zn 
DOCKED: ATOM     21 O15  LIG A   1       3.525  -8.442  -8.910 +0.00 -0.00    -0.750 OA 
DOCKED: ATOM     22 V7   LIG A   1       1.545  -8.180  -8.426 +0.00 +0.00    +1.500 Zn 
DOCKED: ATOM     23 O16  LIG A   1       0.861  -9.208  -9.449 +0.00 -0.00    -0.800 OA 
DOCKED: ATOM     24 O17  LIG A   1       2.007  -9.372  -6.952 +0.00 -0.00    -0.750 OA 
DOCKED: ATOM     25 V8   LIG A   1       2.834  -8.598  -5.645 +0.00 +0.01    +1.500 Zn 
DOCKED: ATOM     26 O18  LIG A   1       2.750  -6.829  -6.979 +0.01 -0.00    -0.750 OA 
DOCKED: ATOM     27 O19  LIG A   1       1.719  -6.641  -9.444 +0.00 -0.00    -0.750 OA 
DOCKED: ATOM     28 V9   LIG A   1       2.427  -5.216  -8.578 +0.01 +0.01    +1.500 Zn 
DOCKED: ATOM     29 V10  LIG A   1       0.636  -6.201  -6.274 +0.04 +0.01    +1.500 Zn 
DOCKED: ATOM     30 O20  LIG A   1       0.178  -7.528  -7.456 +0.00 -0.00    -0.750 OA 
DOCKED: ATOM     31 O21  LIG A   1       1.160  -7.726  -5.039 +0.01 -0.00    -0.750 OA 
DOCKED: ATOM     32 O22  LIG A   1       3.795  -7.103  -4.610 +0.02 -0.01    -0.750 OA 
DOCKED: ATOM     33 O23  LIG A   1       0.897  -4.963  -7.531 +0.02 -0.00    -0.750 OA 
DOCKED: ATOM     34 O24  LIG A   1       2.302  -4.029  -9.641 +0.00 -0.00    -0.800 OA 
DOCKED: ATOM     35 O25  LIG A   1      -0.739  -5.766  -5.590 +0.04 -0.02    -0.800 OA 
DOCKED: ATOM     36 O26  LIG A   1       4.579  -8.625  -6.404 +0.00 -0.00    -0.750 OA 
DOCKED: ATOM     37 O27  LIG A   1       2.952  -9.705  -4.488 +0.00 -0.00    -0.800 OA 
DOCKED: ATOM     38 O28  LIG A   1       6.126  -7.725  -8.434 +0.00 -0.00    -0.750 OA 
DOCKED: ENDROOT
DOCKED: TORSDOF 0
DOCKED: TER
DOCKED: ENDMDL
________________________________________________________________________________


    FINAL DOCKED STATE:
    ________________________


Run:   18 / 20
Time taken for this run:   0.013s

DOCKED: MODEL        18
DOCKED: USER    Run = 18
DOCKED: USER
DOCKED: USER    Estimated Free Energy of Binding    =  +0.22 kcal/mol  [=(1)+(2)+(3)-(4)]
DOCKED: USER
DOCKED: USER    (1) Final Intermolecular Energy     =  +0.22 kcal/mol
DOCKED: USER        vdW + Hbond + desolv Energy     =  +0.21 kcal/mol
DOCKED: USER        Electrostatic Energy            =  +0.01 kcal/mol
DOCKED: USER        Moving Ligand-Fixed Receptor    =  +0.22 kcal/mol
DOCKED: USER        Moving Ligand-Moving Receptor   =  +0.00 kcal/mol
DOCKED: USER    (2) Final Total Internal Energy     =  +0.00 kcal/mol
DOCKED: USER    (3) Torsional Free Energy           =  +0.00 kcal/mol
DOCKED: USER    (4) Unbound System's Energy         =  +0.00 kcal/mol
DOCKED: USER
DOCKED: USER
DOCKED: USER                              x       y       z     vdW  Elec       q    Type
DOCKED: USER                           _______ _______ _______ _____ _____    ______ ____
DOCKED: ROOT
DOCKED: ATOM      1 V1   LIG A   1      -8.358   4.815  -6.314 +0.03 -0.01    +1.500 Zn 
DOCKED: ATOM      2 V2   LIG A   1      -6.216   4.570  -8.532 +0.00 -0.00    +1.500 Zn 
DOCKED: ATOM      3 V3   LIG A   1      -5.433   5.608  -5.726 +0.03 -0.00    +1.500 Zn 
DOCKED: ATOM      4 V4   LIG A   1      -7.669   7.779  -5.738 +0.00 +0.00    +1.500 Zn 
DOCKED: ATOM      5 V5   LIG A   1      -8.572   6.899  -8.549 +0.00 -0.00    +1.500 Zn 
DOCKED: ATOM      6 O1   LIG A   1      -9.309   3.723  -5.625 +0.02 +0.01    -0.800 OA 
DOCKED: ATOM      7 O2   LIG A   1      -7.403   3.714  -7.609 +0.01 +0.00    -0.750 OA 
DOCKED: ATOM      8 O3   LIG A   1      -6.641   4.555  -5.219 +0.03 +0.01    -0.750 OA 
DOCKED: ATOM      9 O4   LIG A   1      -8.577   6.298  -5.224 +0.01 +0.00    -0.750 OA 
DOCKED: ATOM     10 O5   LIG A   1      -9.352   5.502  -7.649 +0.00 +0.00    -0.750 OA 
DOCKED: ATOM     11 O6   LIG A   1      -6.789   6.261  -7.218 +0.00 +0.00    -0.750 OA 
DOCKED: ATOM     12 O7   LIG A   1      -5.016   6.133  -9.119 +0.00 -0.00    -0.750 OA 
DOCKED: ATOM     13 O8   LIG A   1      -4.817   4.525  -7.242 +0.01 +0.00    -0.750 OA 
DOCKED: ATOM     14 O9   LIG A   1      -7.625   5.452  -9.613 +0.00 +0.00    -0.750 OA 
DOCKED: ATOM     15 O10  LIG A   1      -8.777   8.068  -7.219 +0.00 -0.00    -0.750 OA 
DOCKED: ATOM     16 O11  LIG A   1      -5.690   3.530  -9.638 +0.00 +0.00    -0.800 OA 
DOCKED: ATOM     17 O12  LIG A   1      -4.051   5.331  -4.775 +0.03 -0.00    -0.750 OA 
DOCKED: ATOM     18 O13  LIG A   1      -8.172   8.903  -4.720 +0.00 -0.00    -0.800 OA 
DOCKED: ATOM     19 O14  LIG A   1      -9.659   7.353  -9.626 +0.00 -0.00    -0.800 OA 
DOCKED: ATOM     20 V6   LIG A   1      -5.643   7.699  -8.255 +0.00 +0.00    +1.500 Zn 
DOCKED: ATOM     21 O15  LIG A   1      -4.435   8.752  -8.763 +0.00 -0.00    -0.750 OA 
DOCKED: ATOM     22 V7   LIG A   1      -2.717   8.491  -7.666 +0.00 -0.00    +1.500 Zn 
DOCKED: ATOM     23 O16  LIG A   1      -1.767   9.584  -8.357 +0.00 +0.00    -0.800 OA 
DOCKED: ATOM     24 O17  LIG A   1      -3.673   9.594  -6.372 +0.00 +0.00    -0.750 OA 
DOCKED: ATOM     25 V8   LIG A   1      -4.860   8.737  -5.449 +0.00 +0.00    +1.500 Zn 
DOCKED: ATOM     26 O18  LIG A   1      -4.287   7.046  -6.764 +0.00 -0.00    -0.750 OA 
DOCKED: ATOM     27 O19  LIG A   1      -2.499   7.009  -8.757 +0.00 -0.00    -0.750 OA 
DOCKED: ATOM     28 V9   LIG A   1      -3.407   5.529  -8.243 +0.00 +0.00    +1.500 Zn 
DOCKED: ATOM     29 V10  LIG A   1      -2.504   6.409  -5.432 +0.02 +0.00    +1.500 Zn 
DOCKED: ATOM     30 O20  LIG A   1      -1.724   7.805  -6.332 +0.00 +0.00    -0.750 OA 
DOCKED: ATOM     31 O21  LIG A   1      -3.451   7.855  -4.368 +0.00 +0.00    -0.750 OA 
DOCKED: ATOM     32 O22  LIG A   1      -6.060   7.174  -4.862 +0.00 +0.00    -0.750 OA 
DOCKED: ATOM     33 O23  LIG A   1      -2.299   5.239  -6.763 +0.01 -0.00    -0.750 OA 
DOCKED: ATOM     34 O24  LIG A   1      -2.904   4.404  -9.261 +0.00 -0.00    -0.800 OA 
DOCKED: ATOM     35 O25  LIG A   1      -1.417   5.954  -4.356 +0.02 +0.00    -0.800 OA 
DOCKED: ATOM     36 O26  LIG A   1      -6.258   8.783  -6.738 +0.00 -0.00    -0.750 OA 
DOCKED: ATOM     37 O27  LIG A   1      -5.385   9.776  -4.343 +0.00 +0.00    -0.800 OA 
DOCKED: ATOM     38 O28  LIG A   1      -7.024   7.976  -9.206 +0.00 -0.00    -0.750 OA 
DOCKED: ENDROOT
DOCKED: TORSDOF 0
DOCKED: TER
DOCKED: ENDMDL
________________________________________________________________________________


    FINAL DOCKED STATE:
    ________________________


Run:   19 / 20
Time taken for this run:   0.013s

DOCKED: MODEL        19
DOCKED: USER    Run = 19
DOCKED: USER
DOCKED: USER    Estimated Free Energy of Binding    =  +0.29 kcal/mol  [=(1)+(2)+(3)-(4)]
DOCKED: USER
DOCKED: USER    (1) Final Intermolecular Energy     =  +0.29 kcal/mol
DOCKED: USER        vdW + Hbond + desolv Energy     =  +0.28 kcal/mol
DOCKED: USER        Electrostatic Energy            =  +0.01 kcal/mol
DOCKED: USER        Moving Ligand-Fixed Receptor    =  +0.29 kcal/mol
DOCKED: USER        Moving Ligand-Moving Receptor   =  +0.00 kcal/mol
DOCKED: USER    (2) Final Total Internal Energy     =  +0.00 kcal/mol
DOCKED: USER    (3) Torsional Free Energy           =  +0.00 kcal/mol
DOCKED: USER    (4) Unbound System's Energy         =  +0.00 kcal/mol
DOCKED: USER
DOCKED: USER
DOCKED: USER                              x       y       z     vdW  Elec       q    Type
DOCKED: USER                           _______ _______ _______ _____ _____    ______ ____
DOCKED: ROOT
DOCKED: ATOM      1 V1   LIG A   1      -1.862   7.316  -6.158 +0.00 -0.00    +1.500 Zn 
DOCKED: ATOM      2 V2   LIG A   1      -3.486   8.434  -8.540 +0.00 +0.00    +1.500 Zn 
DOCKED: ATOM      3 V3   LIG A   1      -4.947   7.332  -6.048 +0.00 +0.00    +1.500 Zn 
DOCKED: ATOM      4 V4   LIG A   1      -3.401   4.629  -6.149 +0.05 +0.01    +1.500 Zn 
DOCKED: ATOM      5 V5   LIG A   1      -1.867   5.547  -8.658 +0.00 +0.00    +1.500 Zn 
DOCKED: ATOM      6 O1   LIG A   1      -0.773   7.996  -5.197 +0.00 +0.00    -0.800 OA 
DOCKED: ATOM      7 O2   LIG A   1      -2.273   8.795  -7.361 +0.00 +0.00    -0.750 OA 
DOCKED: ATOM      8 O3   LIG A   1      -3.596   7.924  -5.241 +0.00 +0.00    -0.750 OA 
DOCKED: ATOM      9 O4   LIG A   1      -2.221   5.711  -5.302 +0.02 -0.00    -0.750 OA 
DOCKED: ATOM     10 O5   LIG A   1      -0.892   6.540  -7.462 +0.00 +0.00    -0.750 OA 
DOCKED: ATOM     11 O6   LIG A   1      -3.599   6.503  -7.458 +0.00 -0.00    -0.750 OA 
DOCKED: ATOM     12 O7   LIG A   1      -4.954   7.366  -9.506 +0.00 -0.00    -0.750 OA 
DOCKED: ATOM     13 O8   LIG A   1      -5.005   8.723  -7.431 +0.00 -0.00    -0.750 OA 
DOCKED: ATOM     14 O9   LIG A   1      -2.214   7.323  -9.579 +0.00 -0.00    -0.750 OA 
DOCKED: ATOM     15 O10  LIG A   1      -2.193   4.215  -7.519 +0.01 -0.00    -0.750 OA 
DOCKED: ATOM     16 O11  LIG A   1      -3.535   9.708  -9.519 +0.00 -0.00    -0.800 OA 
DOCKED: ATOM     17 O12  LIG A   1      -6.335   7.877  -5.231 +0.00 -0.00    -0.750 OA 
DOCKED: ATOM     18 O13  LIG A   1      -3.382   3.292  -5.274 +0.07 -0.01    -0.800 OA 
DOCKED: ATOM     19 O14  LIG A   1      -0.787   4.935  -9.661 +0.00 -0.00    -0.800 OA 
DOCKED: ATOM     20 V6   LIG A   1      -4.912   5.593  -8.838 +0.00 +0.00    +1.500 Zn 
DOCKED: ATOM     21 O15  LIG A   1      -6.263   5.002  -9.645 +0.00 +0.00    -0.750 OA 
DOCKED: ATOM     22 V7   LIG A   1      -7.998   5.610  -8.728 +0.00 -0.00    +1.500 Zn 
DOCKED: ATOM     23 O16  LIG A   1      -9.086   4.930  -9.690 +0.00 +0.00    -0.800 OA 
DOCKED: ATOM     24 O17  LIG A   1      -7.586   4.130  -7.525 +0.01 +0.00    -0.750 OA 
DOCKED: ATOM     25 V8   LIG A   1      -6.373   4.491  -6.346 +0.05 -0.01    +1.500 Zn 
DOCKED: ATOM     26 O18  LIG A   1      -6.259   6.422  -7.429 +0.00 +0.00    -0.750 OA 
DOCKED: ATOM     27 O19  LIG A   1      -7.638   7.214  -9.584 +0.00 -0.00    -0.750 OA 
DOCKED: ATOM     28 V9   LIG A   1      -6.458   8.296  -8.737 +0.00 +0.00    +1.500 Zn 
DOCKED: ATOM     29 V10  LIG A   1      -7.992   7.378  -6.228 +0.00 -0.00    +1.500 Zn 
DOCKED: ATOM     30 O20  LIG A   1      -8.966   6.386  -7.425 +0.00 +0.00    -0.750 OA 
DOCKED: ATOM     31 O21  LIG A   1      -7.645   5.602  -5.307 +0.01 +0.00    -0.750 OA 
DOCKED: ATOM     32 O22  LIG A   1      -4.905   5.559  -5.379 +0.02 -0.00    -0.750 OA 
DOCKED: ATOM     33 O23  LIG A   1      -7.666   8.710  -7.368 +0.00 -0.00    -0.750 OA 
DOCKED: ATOM     34 O24  LIG A   1      -6.477   9.633  -9.612 +0.00 -0.00    -0.800 OA 
DOCKED: ATOM     35 O25  LIG A   1      -9.072   7.991  -5.226 +0.00 -0.00    -0.800 OA 
DOCKED: ATOM     36 O26  LIG A   1      -4.854   4.202  -7.454 +0.01 +0.00    -0.750 OA 
DOCKED: ATOM     37 O27  LIG A   1      -6.325   3.218  -5.368 +0.04 +0.02    -0.800 OA 
DOCKED: ATOM     38 O28  LIG A   1      -3.524   5.049  -9.655 +0.00 -0.00    -0.750 OA 
DOCKED: ENDROOT
DOCKED: TORSDOF 0
DOCKED: TER
DOCKED: ENDMDL
________________________________________________________________________________


    FINAL DOCKED STATE:
    ________________________


Run:   20 / 20
Time taken for this run:   0.013s

DOCKED: MODEL        20
DOCKED: USER    Run = 20
DOCKED: USER
DOCKED: USER    Estimated Free Energy of Binding    =  +0.23 kcal/mol  [=(1)+(2)+(3)-(4)]
DOCKED: USER
DOCKED: USER    (1) Final Intermolecular Energy     =  +0.23 kcal/mol
DOCKED: USER        vdW + Hbond + desolv Energy     =  +0.22 kcal/mol
DOCKED: USER        Electrostatic Energy            =  +0.01 kcal/mol
DOCKED: USER        Moving Ligand-Fixed Receptor    =  +0.23 kcal/mol
DOCKED: USER        Moving Ligand-Moving Receptor   =  +0.00 kcal/mol
DOCKED: USER    (2) Final Total Internal Energy     =  +0.00 kcal/mol
DOCKED: USER    (3) Torsional Free Energy           =  +0.00 kcal/mol
DOCKED: USER    (4) Unbound System's Energy         =  +0.00 kcal/mol
DOCKED: USER
DOCKED: USER
DOCKED: USER                              x       y       z     vdW  Elec       q    Type
DOCKED: USER                           _______ _______ _______ _____ _____    ______ ____
DOCKED: ROOT
DOCKED: ATOM      1 V1   LIG A   1      -2.457   6.429  -5.384 +0.02 +0.00    +1.500 Zn 
DOCKED: ATOM      2 V2   LIG A   1      -4.725   8.511  -5.092 +0.00 +0.00    +1.500 Zn 
DOCKED: ATOM      3 V3   LIG A   1      -5.400   5.561  -5.727 +0.03 -0.00    +1.500 Zn 
DOCKED: ATOM      4 V4   LIG A   1      -3.453   5.480  -8.158 +0.00 +0.00    +1.500 Zn 
DOCKED: ATOM      5 V5   LIG A   1      -2.679   8.426  -7.695 +0.00 -0.00    +1.500 Zn 
DOCKED: ATOM      6 O1   LIG A   1      -1.327   5.932  -4.360 +0.02 +0.00    -0.800 OA 
DOCKED: ATOM      7 O2   LIG A   1      -3.372   7.772  -4.306 +0.00 +0.00    -0.750 OA 
DOCKED: ATOM      8 O3   LIG A   1      -4.036   5.257  -4.792 +0.03 -0.00    -0.750 OA 
DOCKED: ATOM      9 O4   LIG A   1      -2.332   5.197  -6.763 +0.01 -0.00    -0.750 OA 
DOCKED: ATOM     10 O5   LIG A   1      -1.665   7.743  -6.328 +0.00 +0.00    -0.750 OA 
DOCKED: ATOM     11 O6   LIG A   1      -4.258   7.058  -6.699 +0.00 -0.00    -0.750 OA 
DOCKED: ATOM     12 O7   LIG A   1      -6.150   8.838  -6.538 +0.00 -0.00    -0.750 OA 
DOCKED: ATOM     13 O8   LIG A   1      -5.999   7.144  -4.733 +0.00 +0.00    -0.750 OA 
DOCKED: ATOM     14 O9   LIG A   1      -3.527   9.579  -6.255 +0.00 +0.00    -0.750 OA 
DOCKED: ATOM     15 O10  LIG A   1      -2.511   6.991  -8.740 +0.00 -0.00    -0.750 OA 
DOCKED: ATOM     16 O11  LIG A   1      -5.208   9.689  -4.111 +0.00 +0.00    -0.800 OA 
DOCKED: ATOM     17 O12  LIG A   1      -6.656   4.556  -5.176 +0.03 +0.01    -0.750 OA 
DOCKED: ATOM     18 O13  LIG A   1      -3.010   4.379  -9.228 +0.00 -0.00    -0.800 OA 
DOCKED: ATOM     19 O14  LIG A   1      -1.746   9.516  -8.394 +0.00 +0.00    -0.800 OA 
DOCKED: ATOM     20 V6   LIG A   1      -5.651   7.848  -8.075 +0.00 +0.00    +1.500 Zn 
DOCKED: ATOM     21 O15  LIG A   1      -7.015   8.153  -9.009 +0.00 -0.00    -0.750 OA 
DOCKED: ATOM     22 V7   LIG A   1      -8.594   6.980  -8.416 +0.00 -0.00    +1.500 Zn 
DOCKED: ATOM     23 O16  LIG A   1      -9.723   7.478  -9.441 +0.00 -0.00    -0.800 OA 
DOCKED: ATOM     24 O17  LIG A   1      -7.678   5.637  -9.495 +0.00 +0.00    -0.750 OA 
DOCKED: ATOM     25 V8   LIG A   1      -6.325   4.898  -8.710 +0.00 -0.00    +1.500 Zn 
DOCKED: ATOM     26 O18  LIG A   1      -6.792   6.352  -7.102 +0.00 +0.00    -0.750 OA 
DOCKED: ATOM     27 O19  LIG A   1      -8.718   8.212  -7.038 +0.00 -0.00    -0.750 OA 
DOCKED: ATOM     28 V9   LIG A   1      -7.597   7.929  -5.643 +0.00 +0.00    +1.500 Zn 
DOCKED: ATOM     29 V10  LIG A   1      -8.371   4.983  -6.106 +0.03 -0.01    +1.500 Zn 
DOCKED: ATOM     30 O20  LIG A   1      -9.385   5.667  -7.473 +0.00 +0.00    -0.750 OA 
DOCKED: ATOM     31 O21  LIG A   1      -7.524   3.830  -7.546 +0.01 +0.00    -0.750 OA 
DOCKED: ATOM     32 O22  LIG A   1      -4.900   4.571  -7.264 +0.00 +0.00    -0.750 OA 
DOCKED: ATOM     33 O23  LIG A   1      -8.539   6.419  -5.061 +0.01 +0.00    -0.750 OA 
DOCKED: ATOM     34 O24  LIG A   1      -8.041   9.030  -4.573 +0.00 -0.00    -0.800 OA 
DOCKED: ATOM     35 O25  LIG A   1      -9.304   3.894  -5.407 +0.02 +0.01    -0.800 OA 
DOCKED: ATOM     36 O26  LIG A   1      -5.051   6.265  -9.068 +0.00 -0.00    -0.750 OA 
DOCKED: ATOM     37 O27  LIG A   1      -5.843   3.721  -9.689 +0.00 +0.00    -0.800 OA 
DOCKED: ATOM     38 O28  LIG A   1      -4.395   8.853  -8.624 +0.00 -0.00    -0.750 OA 
DOCKED: ENDROOT
DOCKED: TORSDOF 0
DOCKED: TER
DOCKED: ENDMDL
________________________________________________________________________________


    CLUSTERING HISTOGRAM
    ____________________


________________________________________________________________________________
     |           |     |           |     |
Clus | Lowest    | Run | Mean      | Num | Histogram
-ter | Binding   |     | Binding   | in  |
Rank | Energy    |     | Energy    | Clus|    5    10   15   20   25   30   35
_____|___________|_____|___________|_____|____:____|____:____|____:____|____:___
   1 |     -0.21 |   2 |     -0.13 |   7 |#######
   2 |     +0.19 |   6 |     +0.27 |  12 |############
   3 |     +0.29 |  11 |     +0.29 |   1 |#
_____|___________|_____|___________|_____|______________________________________


    RMSD TABLE
    __________


_______________________________________________________________________
     |      |      |           |         |                 |
Rank | Sub- | Run  | Binding   | Cluster | Reference       | Grep
     | Rank |      | Energy    | RMSD    | RMSD            | Pattern
_____|______|______|___________|_________|_________________|___________
   1      1      2       -0.21      0.00     12.15           RANKING
   1      2     17       -0.20      1.39     11.87           RANKING
   1      3      8       -0.20      0.34     12.31           RANKING
   1      4     13       -0.19      1.42     11.85           RANKING
   1      5      3       -0.15      1.47     11.93           RANKING
   1      6     10       -0.06      1.20     12.03           RANKING
   1      7      5       +0.08      1.64     11.35           RANKING
   2      1      6       +0.19      0.00      7.70           RANKING
   2      2     14       +0.21      0.69      8.00           RANKING
   2      3     18       +0.22      1.06      8.13           RANKING
   2      4     20       +0.23      0.95      8.06           RANKING
   2      5     16       +0.25      1.24      8.01           RANKING
   2      6      1       +0.27      1.44      7.58           RANKING
   2      7     12       +0.28      1.41      6.43           RANKING
   2      8      9       +0.28      1.29      6.85           RANKING
   2      9     19       +0.29      1.48      7.93           RANKING
   2     10      4       +0.29      1.27      6.94           RANKING
   2     11      7       +0.34      1.41      7.96           RANKING
   2     12     15       +0.35      1.42      7.67           RANKING
   3      1     11       +0.29      0.00     10.98           RANKING

Run time 0.274 sec
Idle time 0.269 sec
