AutoDock-GPU version: v1.6|Release|x64

**********************************************************
**    AutoDock-GPU AUTODOCKTOOLS-COMPATIBLE DLG FILE    **
**********************************************************


    DOCKING PARAMETERS
    ________________________


Ligand file:                               O20V10_V.pdbqt
Grid fld file:                             Hidrogel3_mellitic.maps.fld

Random seed:                               1782270904, 53416
Number of runs:                            20
Number of energy evaluations:              1132076
Number of generations:                     42000
Size of population:                        150
Rate of crossover:                         80.000000%
Tournament selection probability limit:    60.000000%
Rate of mutation:                          2.000000%
Maximal allowed delta movement:            +/- 6.000000A
Maximal allowed delta angle:               +/- 90.000000

Rate of local search:                      100.000000%
Maximal number of local search iterations: 300
Rho lower bound:                           0.010000
Spread of local search delta movement:     2.000000A
Spread of local search delta angle:        74.999999
Limit of consecutive successes/failures:   4

Handle symmetry during clustering:         YES
RMSD tolerance:                            2.000000A

Program call in command line was:          D:\Programas\AutoDock-GPU.exe -M Hidrogel3_mellitic.maps.fld -L O20V10_V.pdbqt --nrun 20 --resnam O20V10_V_mellitic --derivtype V=Zn 


    GRID PARAMETERS
    ________________________


Receptor name:                             Hidrogel3_mellitic
Number of grid points (x, y, z):           53, 53, 53
Grid center (x, y, z):                     0.010000, 0.030000, 0.060000A
Grid size (x, y, z):                       19.500000, 19.500000, 19.500000A
Grid spacing:                              0.375000A


    LIGAND PARAMETERS
    ________________________


Ligand name:                               O20V10_V
Number of atoms:                           38
Number of rotatable bonds:                 0
Number of atom types:                      2


    DUMMY DATA (only for ADT-compatibility)
    ________________________


DPF> outlev 1
DPF> ga_run 20
DPF> fld Hidrogel3_mellitic.maps.fld
DPF> move O20V10_V.pdbqt


    COUNTER STATES
    ________________________


Number of energy evaluations performed:    528685
Number of generations used:                90


    INPUT LIGAND PDBQT FILE:
    ________________________


INPUT-LIGAND-PDBQT: ROOT
INPUT-LIGAND-PDBQT: ATOM      1 V1   LIG A   1       2.120   5.955  -3.319  1.00  0.00    +1.500 V
INPUT-LIGAND-PDBQT: ATOM      2 V2   LIG A   1       3.966   4.593  -1.245  1.00  0.00    +1.500 V
INPUT-LIGAND-PDBQT: ATOM      3 V3   LIG A   1       0.901   4.221  -1.074  1.00  0.00    +1.500 V
INPUT-LIGAND-PDBQT: ATOM      4 V4   LIG A   1       0.372   7.291  -1.140  1.00  0.00    +1.500 V
INPUT-LIGAND-PDBQT: ATOM      5 V5   LIG A   1       3.397   7.856  -1.286  1.00  0.00    +1.500 V
INPUT-LIGAND-PDBQT: ATOM      6 O1   LIG A   1       2.029   5.823  -4.915  1.00  0.00    -0.800 OA
INPUT-LIGAND-PDBQT: ATOM      7 O2   LIG A   1       3.602   4.749  -2.929  1.00  0.00    -0.750 OA
INPUT-LIGAND-PDBQT: ATOM      8 O3   LIG A   1       0.995   4.334  -2.749  1.00  0.00    -0.750 OA
INPUT-LIGAND-PDBQT: ATOM      9 O4   LIG A   1       0.584   6.903  -2.897  1.00  0.00    -0.750 OA
INPUT-LIGAND-PDBQT: ATOM     10 O5   LIG A   1       3.208   7.363  -3.043  1.00  0.00    -0.750 OA
INPUT-LIGAND-PDBQT: ATOM     11 O6   LIG A   1       2.192   5.900  -1.004  1.00  0.00    -0.750 OA
INPUT-LIGAND-PDBQT: ATOM     12 O7   LIG A   1       3.752   4.833   0.786  1.00  0.00    -0.750 OA
INPUT-LIGAND-PDBQT: ATOM     13 O8   LIG A   1       2.623   3.315  -0.817  1.00  0.00    -0.750 OA
INPUT-LIGAND-PDBQT: ATOM     14 O9   LIG A   1       4.801   6.391  -1.210  1.00  0.00    -0.750 OA
INPUT-LIGAND-PDBQT: ATOM     15 O10  LIG A   1       1.760   8.548  -1.146  1.00  0.00    -0.750 OA
INPUT-LIGAND-PDBQT: ATOM     16 O11  LIG A   1       5.308   3.712  -1.169  1.00  0.00    -0.800 OA
INPUT-LIGAND-PDBQT: ATOM     17 O12  LIG A   1      -0.042   2.861  -0.685  1.00  0.00    -0.750 OA
INPUT-LIGAND-PDBQT: ATOM     18 O13  LIG A   1      -0.924   8.226  -1.114  1.00  0.00    -0.800 OA
INPUT-LIGAND-PDBQT: ATOM     19 O14  LIG A   1       4.350   9.136  -1.318  1.00  0.00    -0.800 OA
INPUT-LIGAND-PDBQT: ATOM     20 V6   LIG A   1       2.444   6.174   1.074  1.00  0.00    +1.500 V
INPUT-LIGAND-PDBQT: ATOM     21 O15  LIG A   1       2.351   6.061   2.749  1.00  0.00    -0.750 OA
INPUT-LIGAND-PDBQT: ATOM     22 V7   LIG A   1       1.225   4.439   3.319  1.00  0.00    +1.500 V
INPUT-LIGAND-PDBQT: ATOM     23 O16  LIG A   1       1.317   4.572   4.915  1.00  0.00    -0.800 OA
INPUT-LIGAND-PDBQT: ATOM     24 O17  LIG A   1      -0.257   5.646   2.929  1.00  0.00    -0.750 OA
INPUT-LIGAND-PDBQT: ATOM     25 V8   LIG A   1      -0.621   5.802   1.245  1.00  0.00    +1.500 V
INPUT-LIGAND-PDBQT: ATOM     26 O18  LIG A   1       1.154   4.495   1.004  1.00  0.00    -0.750 OA
INPUT-LIGAND-PDBQT: ATOM     27 O19  LIG A   1       2.761   3.492   2.897  1.00  0.00    -0.750 OA
INPUT-LIGAND-PDBQT: ATOM     28 V9   LIG A   1       2.973   3.104   1.140  1.00  0.00    +1.500 V
INPUT-LIGAND-PDBQT: ATOM     29 V10  LIG A   1      -0.052   2.539   1.286  1.00  0.00    +1.500 V
INPUT-LIGAND-PDBQT: ATOM     30 O20  LIG A   1       0.138   3.032   3.043  1.00  0.00    -0.750 OA
INPUT-LIGAND-PDBQT: ATOM     31 O21  LIG A   1      -1.456   4.004   1.210  1.00  0.00    -0.750 OA
INPUT-LIGAND-PDBQT: ATOM     32 O22  LIG A   1      -0.407   5.562  -0.786  1.00  0.00    -0.750 OA
INPUT-LIGAND-PDBQT: ATOM     33 O23  LIG A   1       1.586   1.847   1.146  1.00  0.00    -0.750 OA
INPUT-LIGAND-PDBQT: ATOM     34 O24  LIG A   1       4.269   2.169   1.114  1.00  0.00    -0.800 OA
INPUT-LIGAND-PDBQT: ATOM     35 O25  LIG A   1      -1.004   1.259   1.318  1.00  0.00    -0.800 OA
INPUT-LIGAND-PDBQT: ATOM     36 O26  LIG A   1       0.722   7.080   0.817  1.00  0.00    -0.750 OA
INPUT-LIGAND-PDBQT: ATOM     37 O27  LIG A   1      -1.962   6.682   1.169  1.00  0.00    -0.800 OA
INPUT-LIGAND-PDBQT: ATOM     38 O28  LIG A   1       3.387   7.533   0.685  1.00  0.00    -0.750 OA
INPUT-LIGAND-PDBQT: ENDROOT
INPUT-LIGAND-PDBQT: TORSDOF 0


    FINAL DOCKED STATE:
    ________________________


Run:   1 / 20
Time taken for this run:   0.019s

DOCKED: MODEL        1
DOCKED: USER    Run = 1
DOCKED: USER
DOCKED: USER    Estimated Free Energy of Binding    =  +0.27 kcal/mol  [=(1)+(2)+(3)-(4)]
DOCKED: USER
DOCKED: USER    (1) Final Intermolecular Energy     =  +0.27 kcal/mol
DOCKED: USER        vdW + Hbond + desolv Energy     =  +0.26 kcal/mol
DOCKED: USER        Electrostatic Energy            =  +0.01 kcal/mol
DOCKED: USER        Moving Ligand-Fixed Receptor    =  +0.27 kcal/mol
DOCKED: USER        Moving Ligand-Moving Receptor   =  +0.00 kcal/mol
DOCKED: USER    (2) Final Total Internal Energy     =  +0.00 kcal/mol
DOCKED: USER    (3) Torsional Free Energy           =  +0.00 kcal/mol
DOCKED: USER    (4) Unbound System's Energy         =  +0.00 kcal/mol
DOCKED: USER
DOCKED: USER
DOCKED: USER                              x       y       z     vdW  Elec       q    Type
DOCKED: USER                           _______ _______ _______ _____ _____    ______ ____
DOCKED: ROOT
DOCKED: ATOM      1 V1   LIG A   1      -7.379   5.991  -5.853 +0.02 -0.00    +1.500 V  
DOCKED: ATOM      2 V2   LIG A   1      -6.017   4.857  -8.387 +0.00 -0.00    +1.500 V  
DOCKED: ATOM      3 V3   LIG A   1      -4.323   5.551  -5.895 +0.03 +0.00    +1.500 V  
DOCKED: ATOM      4 V4   LIG A   1      -5.485   8.437  -5.722 +0.00 +0.00    +1.500 V  
DOCKED: ATOM      5 V5   LIG A   1      -7.226   7.936  -8.214 +0.00 +0.00    +1.500 V  
DOCKED: ATOM      6 O1   LIG A   1      -8.514   5.390  -4.892 +0.02 +0.00    -0.800 OA 
DOCKED: ATOM      7 O2   LIG A   1      -7.222   4.570  -7.179 +0.01 +0.00    -0.750 OA 
DOCKED: ATOM      8 O3   LIG A   1      -5.711   5.084  -5.069 +0.03 +0.00    -0.750 OA 
DOCKED: ATOM      9 O4   LIG A   1      -6.770   7.460  -4.900 +0.00 +0.00    -0.750 OA 
DOCKED: ATOM     10 O5   LIG A   1      -8.282   6.991  -7.048 +0.00 +0.00    -0.750 OA 
DOCKED: ATOM     11 O6   LIG A   1      -5.597   6.663  -7.172 +0.00 -0.00    -0.750 OA 
DOCKED: ATOM     12 O7   LIG A   1      -4.454   5.791  -9.343 +0.00 -0.00    -0.750 OA 
DOCKED: ATOM     13 O8   LIG A   1      -4.511   4.279  -7.378 +0.01 +0.00    -0.750 OA 
DOCKED: ATOM     14 O9   LIG A   1      -7.162   6.208  -9.278 +0.00 +0.00    -0.750 OA 
DOCKED: ATOM     15 O10  LIG A   1      -6.676   9.117  -6.997 +0.00 -0.00    -0.750 OA 
DOCKED: ATOM     16 O11  LIG A   1      -6.182   3.669  -9.458 +0.00 +0.00    -0.800 OA 
DOCKED: ATOM     17 O12  LIG A   1      -2.994   4.762  -5.189 +0.03 -0.01    -0.750 OA 
DOCKED: ATOM     18 O13  LIG A   1      -5.286   9.691  -4.751 +0.00 -0.00    -0.800 OA 
DOCKED: ATOM     19 O14  LIG A   1      -8.249   8.766  -9.115 +0.00 -0.00    -0.800 OA 
DOCKED: ATOM     20 V6   LIG A   1      -4.225   7.495  -8.545 +0.00 +0.00    +1.500 V  
DOCKED: ATOM     21 O15  LIG A   1      -2.838   7.962  -9.371 +0.00 -0.00    -0.750 OA 
DOCKED: ATOM     22 V7   LIG A   1      -1.169   7.054  -8.586 +0.00 -0.00    +1.500 V  
DOCKED: ATOM     23 O16  LIG A   1      -0.035   7.656  -9.548 +0.00 +0.00    -0.800 OA 
DOCKED: ATOM     24 O17  LIG A   1      -1.327   8.476  -7.260 +0.00 +0.00    -0.750 OA 
DOCKED: ATOM     25 V8   LIG A   1      -2.532   8.190  -6.052 +0.00 -0.00    +1.500 V  
DOCKED: ATOM     26 O18  LIG A   1      -2.952   6.383  -7.268 +0.00 -0.00    -0.750 OA 
DOCKED: ATOM     27 O19  LIG A   1      -1.779   5.587  -9.539 +0.00 -0.00    -0.750 OA 
DOCKED: ATOM     28 V9   LIG A   1      -3.064   4.609  -8.717 +0.00 +0.00    +1.500 V  
DOCKED: ATOM     29 V10  LIG A   1      -1.323   5.110  -6.226 +0.05 +0.00    +1.500 V  
DOCKED: ATOM     30 O20  LIG A   1      -0.268   6.055  -7.392 +0.00 +0.00    -0.750 OA 
DOCKED: ATOM     31 O21  LIG A   1      -1.387   6.838  -5.161 +0.01 +0.00    -0.750 OA 
DOCKED: ATOM     32 O22  LIG A   1      -4.095   7.255  -5.097 +0.00 -0.00    -0.750 OA 
DOCKED: ATOM     33 O23  LIG A   1      -1.873   3.929  -7.443 +0.01 -0.00    -0.750 OA 
DOCKED: ATOM     34 O24  LIG A   1      -3.263   3.355  -9.689 +0.00 -0.00    -0.800 OA 
DOCKED: ATOM     35 O25  LIG A   1      -0.300   4.280  -5.325 +0.04 +0.00    -0.800 OA 
DOCKED: ATOM     36 O26  LIG A   1      -4.038   8.767  -7.061 +0.00 +0.00    -0.750 OA 
DOCKED: ATOM     37 O27  LIG A   1      -2.367   9.376  -4.982 +0.00 +0.00    -0.800 OA 
DOCKED: ATOM     38 O28  LIG A   1      -5.555   8.284  -9.250 +0.00 -0.00    -0.750 OA 
DOCKED: ENDROOT
DOCKED: TORSDOF 0
DOCKED: TER
DOCKED: ENDMDL
________________________________________________________________________________


    FINAL DOCKED STATE:
    ________________________


Run:   2 / 20
Time taken for this run:   0.019s

DOCKED: MODEL        2
DOCKED: USER    Run = 2
DOCKED: USER
DOCKED: USER    Estimated Free Energy of Binding    =  -0.11 kcal/mol  [=(1)+(2)+(3)-(4)]
DOCKED: USER
DOCKED: USER    (1) Final Intermolecular Energy     =  -0.11 kcal/mol
DOCKED: USER        vdW + Hbond + desolv Energy     =  +0.21 kcal/mol
DOCKED: USER        Electrostatic Energy            =  -0.32 kcal/mol
DOCKED: USER        Moving Ligand-Fixed Receptor    =  -0.11 kcal/mol
DOCKED: USER        Moving Ligand-Moving Receptor   =  +0.00 kcal/mol
DOCKED: USER    (2) Final Total Internal Energy     =  +0.00 kcal/mol
DOCKED: USER    (3) Torsional Free Energy           =  +0.00 kcal/mol
DOCKED: USER    (4) Unbound System's Energy         =  +0.00 kcal/mol
DOCKED: USER
DOCKED: USER
DOCKED: USER                              x       y       z     vdW  Elec       q    Type
DOCKED: USER                           _______ _______ _______ _____ _____    ______ ____
DOCKED: ROOT
DOCKED: ATOM      1 V1   LIG A   1       0.943  -6.566  -5.776 +0.04 +0.01    +1.500 V  
DOCKED: ATOM      2 V2   LIG A   1       3.436  -8.391  -5.620 +0.00 +0.01    +1.500 V  
DOCKED: ATOM      3 V3   LIG A   1       3.746  -5.320  -5.427 +0.11 +0.01    +1.500 V  
DOCKED: ATOM      4 V4   LIG A   1       2.138  -4.840  -8.052 +0.03 +0.01    +1.500 V  
DOCKED: ATOM      5 V5   LIG A   1       1.751  -7.874  -8.425 +0.00 +0.00    +1.500 V  
DOCKED: ATOM      6 O1   LIG A   1      -0.370  -6.473  -4.859 +0.03 -0.01    -0.800 OA 
DOCKED: ATOM      7 O2   LIG A   1       1.900  -8.029  -4.911 +0.01 -0.00    -0.750 OA 
DOCKED: ATOM      8 O3   LIG A   1       2.243  -5.416  -4.679 +0.05 +0.00    -0.750 OA 
DOCKED: ATOM      9 O4   LIG A   1       0.818  -5.046  -6.829 +0.02 -0.01    -0.750 OA 
DOCKED: ATOM     10 O5   LIG A   1       0.481  -7.677  -7.117 +0.00 -0.00    -0.750 OA 
DOCKED: ATOM     11 O6   LIG A   1       2.971  -6.638  -6.895 +0.01 -0.00    -0.750 OA 
DOCKED: ATOM     12 O7   LIG A   1       5.067  -8.180  -6.854 +0.00 -0.00    -0.750 OA 
DOCKED: ATOM     13 O8   LIG A   1       4.439  -7.027  -4.750 +0.02 -0.01    -0.750 OA 
DOCKED: ATOM     14 O9   LIG A   1       2.567  -9.254  -7.179 +0.00 -0.00    -0.750 OA 
DOCKED: ATOM     15 O10  LIG A   1       1.511  -6.248  -9.116 +0.00 -0.00    -0.750 OA 
DOCKED: ATOM     16 O11  LIG A   1       3.956  -9.718  -4.879 +0.00 -0.00    -0.800 OA 
DOCKED: ATOM     17 O12  LIG A   1       4.760  -4.355  -4.462 -0.01 -0.03    -0.750 OA 
DOCKED: ATOM     18 O13  LIG A   1       1.679  -3.559  -8.891 +0.01 -0.00    -0.800 OA 
DOCKED: ATOM     19 O14  LIG A   1       1.086  -8.847  -9.501 +0.00 -0.00    -0.800 OA 
DOCKED: ATOM     20 V6   LIG A   1       4.630  -6.894  -8.175 +0.00 +0.01    +1.500 V  
DOCKED: ATOM     21 O15  LIG A   1       6.133  -6.799  -8.923 +0.00 -0.00    -0.750 OA 
DOCKED: ATOM     22 V7   LIG A   1       7.433  -5.648  -7.825 +0.02 +0.01    +1.500 V  
DOCKED: ATOM     23 O16  LIG A   1       8.746  -5.742  -8.743 +0.00 -0.00    -0.800 OA 
DOCKED: ATOM     24 O17  LIG A   1       6.476  -4.185  -8.691 +0.01 -0.00    -0.750 OA 
DOCKED: ATOM     25 V8   LIG A   1       4.940  -3.824  -7.982 +0.06 +0.00    +1.500 V  
DOCKED: ATOM     26 O18  LIG A   1       5.405  -5.577  -6.707 +0.02 -0.01    -0.750 OA 
DOCKED: ATOM     27 O19  LIG A   1       7.558  -7.168  -6.773 +0.01 -0.01    -0.750 OA 
DOCKED: ATOM     28 V9   LIG A   1       6.238  -7.374  -5.550 +0.03 +0.02    +1.500 V  
DOCKED: ATOM     29 V10  LIG A   1       6.625  -4.340  -5.177 +0.15 +0.12    +1.500 V  
DOCKED: ATOM     30 O20  LIG A   1       7.895  -4.538  -6.486 +0.02 -0.01    -0.750 OA 
DOCKED: ATOM     31 O21  LIG A   1       5.810  -2.960  -6.423 +0.01 +0.01    -0.750 OA 
DOCKED: ATOM     32 O22  LIG A   1       3.309  -4.034  -6.748 +0.03 +0.00    -0.750 OA 
DOCKED: ATOM     33 O23  LIG A   1       6.865  -5.967  -4.486 +0.03 -0.03    -0.750 OA 
DOCKED: ATOM     34 O24  LIG A   1       6.697  -8.655  -4.711 +0.01 -0.01    -0.800 OA 
DOCKED: ATOM     35 O25  LIG A   1       7.290  -3.368  -4.101 -0.54 -0.36    -0.800 OA 
DOCKED: ATOM     36 O26  LIG A   1       3.938  -5.187  -8.852 +0.01 -0.00    -0.750 OA 
DOCKED: ATOM     37 O27  LIG A   1       4.421  -2.497  -8.722 +0.02 +0.00    -0.800 OA 
DOCKED: ATOM     38 O28  LIG A   1       3.617  -7.859  -9.140 +0.00 -0.00    -0.750 OA 
DOCKED: ENDROOT
DOCKED: TORSDOF 0
DOCKED: TER
DOCKED: ENDMDL
________________________________________________________________________________


    FINAL DOCKED STATE:
    ________________________


Run:   3 / 20
Time taken for this run:   0.019s

DOCKED: MODEL        3
DOCKED: USER    Run = 3
DOCKED: USER
DOCKED: USER    Estimated Free Energy of Binding    =  +0.29 kcal/mol  [=(1)+(2)+(3)-(4)]
DOCKED: USER
DOCKED: USER    (1) Final Intermolecular Energy     =  +0.29 kcal/mol
DOCKED: USER        vdW + Hbond + desolv Energy     =  +0.29 kcal/mol
DOCKED: USER        Electrostatic Energy            =  +0.01 kcal/mol
DOCKED: USER        Moving Ligand-Fixed Receptor    =  +0.29 kcal/mol
DOCKED: USER        Moving Ligand-Moving Receptor   =  +0.00 kcal/mol
DOCKED: USER    (2) Final Total Internal Energy     =  +0.00 kcal/mol
DOCKED: USER    (3) Torsional Free Energy           =  +0.00 kcal/mol
DOCKED: USER    (4) Unbound System's Energy         =  +0.00 kcal/mol
DOCKED: USER
DOCKED: USER
DOCKED: USER                              x       y       z     vdW  Elec       q    Type
DOCKED: USER                           _______ _______ _______ _____ _____    ______ ____
DOCKED: ROOT
DOCKED: ATOM      1 V1   LIG A   1      -2.132   6.180  -7.856 +0.00 +0.00    +1.500 V  
DOCKED: ATOM      2 V2   LIG A   1      -3.764   5.468  -5.327 +0.05 +0.00    +1.500 V  
DOCKED: ATOM      3 V3   LIG A   1      -5.195   5.843  -8.042 +0.00 -0.00    +1.500 V  
DOCKED: ATOM      4 V4   LIG A   1      -3.898   8.637  -8.512 +0.00 +0.00    +1.500 V  
DOCKED: ATOM      5 V5   LIG A   1      -2.411   8.451  -5.821 +0.00 -0.00    +1.500 V  
DOCKED: ATOM      6 O1   LIG A   1      -0.943   5.411  -8.610 +0.00 -0.00    -0.800 OA 
DOCKED: ATOM      7 O2   LIG A   1      -2.469   4.973  -6.362 +0.01 -0.00    -0.750 OA 
DOCKED: ATOM      8 O3   LIG A   1      -3.761   5.219  -8.658 +0.00 -0.00    -0.750 OA 
DOCKED: ATOM      9 O4   LIG A   1      -2.589   7.512  -9.062 +0.00 -0.00    -0.750 OA 
DOCKED: ATOM     10 O5   LIG A   1      -1.297   7.316  -6.736 +0.00 +0.00    -0.750 OA 
DOCKED: ATOM     11 O6   LIG A   1      -3.994   7.090  -6.820 +0.00 -0.00    -0.750 OA 
DOCKED: ATOM     12 O7   LIG A   1      -5.363   6.578  -4.667 +0.01 -0.00    -0.750 OA 
DOCKED: ATOM     13 O8   LIG A   1      -5.197   4.796  -6.383 +0.01 +0.00    -0.750 OA 
DOCKED: ATOM     14 O9   LIG A   1      -2.645   6.899  -4.533 +0.01 +0.00    -0.750 OA 
DOCKED: ATOM     15 O10  LIG A   1      -2.798   9.459  -7.240 +0.00 +0.00    -0.750 OA 
DOCKED: ATOM     16 O11  LIG A   1      -3.747   4.444  -4.088 +0.07 -0.01    -0.800 OA 
DOCKED: ATOM     17 O12  LIG A   1      -6.490   5.000  -8.752 +0.00 +0.00    -0.750 OA 
DOCKED: ATOM     18 O13  LIG A   1      -3.955   9.742  -9.666 +0.00 -0.00    -0.800 OA 
DOCKED: ATOM     19 O14  LIG A   1      -1.438   9.372  -4.954 +0.00 +0.00    -0.800 OA 
DOCKED: ATOM     20 V6   LIG A   1      -5.445   8.154  -5.717 +0.00 +0.00    +1.500 V  
DOCKED: ATOM     21 O15  LIG A   1      -6.880   8.777  -5.100 +0.00 -0.00    -0.750 OA 
DOCKED: ATOM     22 V7   LIG A   1      -8.509   7.816  -5.903 +0.00 +0.00    +1.500 V  
DOCKED: ATOM     23 O16  LIG A   1      -9.697   8.586  -5.148 +0.00 -0.00    -0.800 OA 
DOCKED: ATOM     24 O17  LIG A   1      -8.172   9.024  -7.397 +0.00 -0.00    -0.750 OA 
DOCKED: ATOM     25 V8   LIG A   1      -6.877   8.529  -8.432 +0.00 +0.00    +1.500 V  
DOCKED: ATOM     26 O18  LIG A   1      -6.646   6.907  -6.938 +0.00 +0.00    -0.750 OA 
DOCKED: ATOM     27 O19  LIG A   1      -8.052   6.485  -4.697 +0.01 +0.00    -0.750 OA 
DOCKED: ATOM     28 V9   LIG A   1      -6.742   5.360  -5.247 +0.05 -0.01    +1.500 V  
DOCKED: ATOM     29 V10  LIG A   1      -8.230   5.546  -7.938 +0.00 -0.00    +1.500 V  
DOCKED: ATOM     30 O20  LIG A   1      -9.343   6.681  -7.023 +0.00 +0.00    -0.750 OA 
DOCKED: ATOM     31 O21  LIG A   1      -7.996   7.098  -9.226 +0.00 -0.00    -0.750 OA 
DOCKED: ATOM     32 O22  LIG A   1      -5.277   7.419  -9.092 +0.00 -0.00    -0.750 OA 
DOCKED: ATOM     33 O23  LIG A   1      -7.843   4.538  -6.519 +0.01 +0.00    -0.750 OA 
DOCKED: ATOM     34 O24  LIG A   1      -6.686   4.255  -4.093 +0.05 +0.01    -0.800 OA 
DOCKED: ATOM     35 O25  LIG A   1      -9.203   4.625  -8.805 +0.00 +0.00    -0.800 OA 
DOCKED: ATOM     36 O26  LIG A   1      -5.444   9.201  -7.376 +0.00 -0.00    -0.750 OA 
DOCKED: ATOM     37 O27  LIG A   1      -6.894   9.551  -9.670 +0.00 -0.00    -0.800 OA 
DOCKED: ATOM     38 O28  LIG A   1      -4.151   8.996  -5.007 +0.00 +0.00    -0.750 OA 
DOCKED: ENDROOT
DOCKED: TORSDOF 0
DOCKED: TER
DOCKED: ENDMDL
________________________________________________________________________________


    FINAL DOCKED STATE:
    ________________________


Run:   4 / 20
Time taken for this run:   0.019s

DOCKED: MODEL        4
DOCKED: USER    Run = 4
DOCKED: USER
DOCKED: USER    Estimated Free Energy of Binding    =  +0.23 kcal/mol  [=(1)+(2)+(3)-(4)]
DOCKED: USER
DOCKED: USER    (1) Final Intermolecular Energy     =  +0.23 kcal/mol
DOCKED: USER        vdW + Hbond + desolv Energy     =  +0.21 kcal/mol
DOCKED: USER        Electrostatic Energy            =  +0.01 kcal/mol
DOCKED: USER        Moving Ligand-Fixed Receptor    =  +0.23 kcal/mol
DOCKED: USER        Moving Ligand-Moving Receptor   =  +0.00 kcal/mol
DOCKED: USER    (2) Final Total Internal Energy     =  +0.00 kcal/mol
DOCKED: USER    (3) Torsional Free Energy           =  +0.00 kcal/mol
DOCKED: USER    (4) Unbound System's Energy         =  +0.00 kcal/mol
DOCKED: USER
DOCKED: USER
DOCKED: USER                              x       y       z     vdW  Elec       q    Type
DOCKED: USER                           _______ _______ _______ _____ _____    ______ ____
DOCKED: ROOT
DOCKED: ATOM      1 V1   LIG A   1      -2.596   7.981  -8.378 +0.00 -0.00    +1.500 V  
DOCKED: ATOM      2 V2   LIG A   1      -3.627   5.083  -8.696 +0.00 +0.00    +1.500 V  
DOCKED: ATOM      3 V3   LIG A   1      -5.630   7.435  -8.557 +0.00 +0.00    +1.500 V  
DOCKED: ATOM      4 V4   LIG A   1      -4.393   8.531  -5.916 +0.00 +0.00    +1.500 V  
DOCKED: ATOM      5 V5   LIG A   1      -2.335   6.239  -5.873 +0.02 +0.00    +1.500 V  
DOCKED: ATOM      6 O1   LIG A   1      -1.634   8.878  -9.296 +0.00 +0.00    -0.800 OA 
DOCKED: ATOM      7 O2   LIG A   1      -2.618   6.309  -9.382 +0.00 -0.00    -0.750 OA 
DOCKED: ATOM      8 O3   LIG A   1      -4.393   8.271  -9.330 +0.00 -0.00    -0.750 OA 
DOCKED: ATOM      9 O4   LIG A   1      -3.277   9.213  -7.171 +0.00 +0.00    -0.750 OA 
DOCKED: ATOM     10 O5   LIG A   1      -1.494   7.228  -7.169 +0.00 +0.00    -0.750 OA 
DOCKED: ATOM     11 O6   LIG A   1      -4.144   6.679  -7.248 +0.00 -0.00    -0.750 OA 
DOCKED: ATOM     12 O7   LIG A   1      -5.000   4.227  -7.427 +0.01 +0.00    -0.750 OA 
DOCKED: ATOM     13 O8   LIG A   1      -5.283   5.698  -9.403 +0.00 -0.00    -0.750 OA 
DOCKED: ATOM     14 O9   LIG A   1      -2.314   4.745  -7.249 +0.01 -0.00    -0.750 OA 
DOCKED: ATOM     15 O10  LIG A   1      -3.006   7.651  -5.017 +0.00 +0.00    -0.750 OA 
DOCKED: ATOM     16 O11  LIG A   1      -3.358   3.759  -9.567 +0.00 -0.00    -0.800 OA 
DOCKED: ATOM     17 O12  LIG A   1      -7.076   7.725  -9.402 +0.00 -0.00    -0.750 OA 
DOCKED: ATOM     18 O13  LIG A   1      -4.679   9.774  -4.952 +0.00 +0.00    -0.800 OA 
DOCKED: ATOM     19 O14  LIG A   1      -1.163   5.734  -4.915 +0.02 +0.00    -0.800 OA 
DOCKED: ATOM     20 V6   LIG A   1      -5.273   5.423  -5.982 +0.02 -0.00    +1.500 V  
DOCKED: ATOM     21 O15  LIG A   1      -6.510   4.585  -5.209 +0.03 +0.01    -0.750 OA 
DOCKED: ATOM     22 V7   LIG A   1      -8.307   4.876  -6.162 +0.03 -0.01    +1.500 V  
DOCKED: ATOM     23 O16  LIG A   1      -9.268   3.979  -5.243 +0.02 +0.01    -0.800 OA 
DOCKED: ATOM     24 O17  LIG A   1      -8.285   6.548  -5.157 +0.00 +0.00    -0.750 OA 
DOCKED: ATOM     25 V8   LIG A   1      -7.276   7.775  -5.843 +0.00 +0.00    +1.500 V  
DOCKED: ATOM     26 O18  LIG A   1      -6.758   6.177  -7.291 +0.00 +0.00    -0.750 OA 
DOCKED: ATOM     27 O19  LIG A   1      -7.626   3.645  -7.368 +0.01 +0.00    -0.750 OA 
DOCKED: ATOM     28 V9   LIG A   1      -6.510   4.326  -8.623 +0.00 -0.00    +1.500 V  
DOCKED: ATOM     29 V10  LIG A   1      -8.567   6.619  -8.666 +0.00 -0.00    +1.500 V  
DOCKED: ATOM     30 O20  LIG A   1      -9.408   5.629  -7.370 +0.00 +0.00    -0.750 OA 
DOCKED: ATOM     31 O21  LIG A   1      -8.588   8.112  -7.290 +0.00 -0.00    -0.750 OA 
DOCKED: ATOM     32 O22  LIG A   1      -5.903   8.630  -7.113 +0.00 -0.00    -0.750 OA 
DOCKED: ATOM     33 O23  LIG A   1      -7.896   5.206  -9.522 +0.00 +0.00    -0.750 OA 
DOCKED: ATOM     34 O24  LIG A   1      -6.224   3.084  -9.587 +0.00 +0.00    -0.800 OA 
DOCKED: ATOM     35 O25  LIG A   1      -9.739   7.123  -9.624 +0.00 -0.00    -0.800 OA 
DOCKED: ATOM     36 O26  LIG A   1      -5.620   7.160  -5.136 +0.00 -0.00    -0.750 OA 
DOCKED: ATOM     37 O27  LIG A   1      -7.545   9.097  -4.973 +0.00 -0.00    -0.800 OA 
DOCKED: ATOM     38 O28  LIG A   1      -3.827   5.132  -5.138 +0.03 -0.00    -0.750 OA 
DOCKED: ENDROOT
DOCKED: TORSDOF 0
DOCKED: TER
DOCKED: ENDMDL
________________________________________________________________________________


    FINAL DOCKED STATE:
    ________________________


Run:   5 / 20
Time taken for this run:   0.019s

DOCKED: MODEL        5
DOCKED: USER    Run = 5
DOCKED: USER
DOCKED: USER    Estimated Free Energy of Binding    =  +0.40 kcal/mol  [=(1)+(2)+(3)-(4)]
DOCKED: USER
DOCKED: USER    (1) Final Intermolecular Energy     =  +0.40 kcal/mol
DOCKED: USER        vdW + Hbond + desolv Energy     =  +0.39 kcal/mol
DOCKED: USER        Electrostatic Energy            =  +0.01 kcal/mol
DOCKED: USER        Moving Ligand-Fixed Receptor    =  +0.40 kcal/mol
DOCKED: USER        Moving Ligand-Moving Receptor   =  +0.00 kcal/mol
DOCKED: USER    (2) Final Total Internal Energy     =  +0.00 kcal/mol
DOCKED: USER    (3) Torsional Free Energy           =  +0.00 kcal/mol
DOCKED: USER    (4) Unbound System's Energy         =  +0.00 kcal/mol
DOCKED: USER
DOCKED: USER
DOCKED: USER                              x       y       z     vdW  Elec       q    Type
DOCKED: USER                           _______ _______ _______ _____ _____    ______ ____
DOCKED: ROOT
DOCKED: ATOM      1 V1   LIG A   1      -8.569   6.126  -8.460 +0.00 -0.00    +1.500 V  
DOCKED: ATOM      2 V2   LIG A   1      -8.035   7.648  -5.821 +0.00 +0.00    +1.500 V  
DOCKED: ATOM      3 V3   LIG A   1      -5.739   7.193  -7.841 +0.00 +0.00    +1.500 V  
DOCKED: ATOM      4 V4   LIG A   1      -6.259   4.123  -7.973 +0.01 -0.00    +1.500 V  
DOCKED: ATOM      5 V5   LIG A   1      -8.563   4.380  -5.944 +0.05 -0.01    +1.500 V  
DOCKED: ATOM      6 O1   LIG A   1      -9.562   6.429  -9.683 +0.00 -0.00    -0.800 OA 
DOCKED: ATOM      7 O2   LIG A   1      -8.981   7.615  -7.269 +0.00 -0.00    -0.750 OA 
DOCKED: ATOM      8 O3   LIG A   1      -6.977   7.318  -8.972 +0.00 -0.00    -0.750 OA 
DOCKED: ATOM      9 O4   LIG A   1      -7.497   4.769  -9.127 +0.00 +0.00    -0.750 OA 
DOCKED: ATOM     10 O5   LIG A   1      -9.501   5.023  -7.384 +0.00 +0.00    -0.750 OA 
DOCKED: ATOM     11 O6   LIG A   1      -7.022   5.908  -6.749 +0.00 +0.00    -0.750 OA 
DOCKED: ATOM     12 O7   LIG A   1      -6.568   7.109  -4.485 +0.00 +0.00    -0.750 OA 
DOCKED: ATOM     13 O8   LIG A   1      -6.485   8.473  -6.554 +0.00 -0.00    -0.750 OA 
DOCKED: ATOM     14 O9   LIG A   1      -9.066   6.136  -5.057 +0.01 +0.00    -0.750 OA 
DOCKED: ATOM     15 O10  LIG A   1      -7.545   3.278  -6.907 +0.02 +0.01    -0.750 OA 
DOCKED: ATOM     16 O11  LIG A   1      -8.654   8.828  -4.923 +0.00 -0.00    -0.800 OA 
DOCKED: ATOM     17 O12  LIG A   1      -4.464   8.204  -8.335 +0.00 -0.00    -0.750 OA 
DOCKED: ATOM     18 O13  LIG A   1      -5.616   2.890  -8.761 +0.01 +0.00    -0.800 OA 
DOCKED: ATOM     19 O14  LIG A   1      -9.579   3.403  -5.195 +0.03 +0.01    -0.800 OA 
DOCKED: ATOM     20 V6   LIG A   1      -5.848   5.451  -5.055 +0.06 -0.00    +1.500 V  
DOCKED: ATOM     21 O15  LIG A   1      -4.611   5.326  -3.924 +0.04 -0.00    -0.750 OA 
DOCKED: ATOM     22 V7   LIG A   1      -3.018   6.518  -4.437 +0.03 +0.00    +1.500 V  
DOCKED: ATOM     23 O16  LIG A   1      -2.026   6.215  -3.213 +0.03 -0.00    -0.800 OA 
DOCKED: ATOM     24 O17  LIG A   1      -2.607   5.029  -5.627 +0.02 -0.00    -0.750 OA 
DOCKED: ATOM     25 V8   LIG A   1      -3.552   4.996  -7.076 +0.01 +0.00    +1.500 V  
DOCKED: ATOM     26 O18  LIG A   1      -4.566   6.736  -6.147 +0.00 -0.00    -0.750 OA 
DOCKED: ATOM     27 O19  LIG A   1      -4.090   7.874  -3.770 +0.00 -0.00    -0.750 OA 
DOCKED: ATOM     28 V9   LIG A   1      -5.329   8.520  -4.924 +0.00 +0.00    +1.500 V  
DOCKED: ATOM     29 V10  LIG A   1      -3.024   8.264  -6.952 +0.00 -0.00    +1.500 V  
DOCKED: ATOM     30 O20  LIG A   1      -2.087   7.621  -5.512 +0.00 +0.00    -0.750 OA 
DOCKED: ATOM     31 O21  LIG A   1      -2.522   6.508  -7.839 +0.00 -0.00    -0.750 OA 
DOCKED: ATOM     32 O22  LIG A   1      -5.019   5.535  -8.412 +0.00 +0.00    -0.750 OA 
DOCKED: ATOM     33 O23  LIG A   1      -4.042   9.366  -5.989 +0.00 +0.00    -0.750 OA 
DOCKED: ATOM     34 O24  LIG A   1      -5.971   9.753  -4.136 +0.00 -0.00    -0.800 OA 
DOCKED: ATOM     35 O25  LIG A   1      -2.009   9.241  -7.701 +0.00 +0.00    -0.800 OA 
DOCKED: ATOM     36 O26  LIG A   1      -5.102   4.171  -6.343 +0.02 +0.00    -0.750 OA 
DOCKED: ATOM     37 O27  LIG A   1      -2.934   3.817  -7.973 +0.00 -0.00    -0.800 OA 
DOCKED: ATOM     38 O28  LIG A   1      -7.123   4.441  -4.562 +0.03 +0.01    -0.750 OA 
DOCKED: ENDROOT
DOCKED: TORSDOF 0
DOCKED: TER
DOCKED: ENDMDL
________________________________________________________________________________


    FINAL DOCKED STATE:
    ________________________


Run:   6 / 20
Time taken for this run:   0.019s

DOCKED: MODEL        6
DOCKED: USER    Run = 6
DOCKED: USER
DOCKED: USER    Estimated Free Energy of Binding    =  -0.15 kcal/mol  [=(1)+(2)+(3)-(4)]
DOCKED: USER
DOCKED: USER    (1) Final Intermolecular Energy     =  -0.15 kcal/mol
DOCKED: USER        vdW + Hbond + desolv Energy     =  +0.09 kcal/mol
DOCKED: USER        Electrostatic Energy            =  -0.24 kcal/mol
DOCKED: USER        Moving Ligand-Fixed Receptor    =  -0.15 kcal/mol
DOCKED: USER        Moving Ligand-Moving Receptor   =  +0.00 kcal/mol
DOCKED: USER    (2) Final Total Internal Energy     =  +0.00 kcal/mol
DOCKED: USER    (3) Torsional Free Energy           =  +0.00 kcal/mol
DOCKED: USER    (4) Unbound System's Energy         =  +0.00 kcal/mol
DOCKED: USER
DOCKED: USER
DOCKED: USER                              x       y       z     vdW  Elec       q    Type
DOCKED: USER                           _______ _______ _______ _____ _____    ______ ____
DOCKED: ROOT
DOCKED: ATOM      1 V1   LIG A   1       7.954  -5.549  -8.084 +0.02 +0.01    +1.500 V  
DOCKED: ATOM      2 V2   LIG A   1       6.373  -8.182  -8.448 +0.00 +0.00    +1.500 V  
DOCKED: ATOM      3 V3   LIG A   1       4.921  -5.617  -7.513 +0.04 +0.01    +1.500 V  
DOCKED: ATOM      4 V4   LIG A   1       6.939  -5.139  -5.188 +0.12 +0.08    +1.500 V  
DOCKED: ATOM      5 V5   LIG A   1       8.497  -7.683  -5.956 +0.01 +0.01    +1.500 V  
DOCKED: ATOM      6 O1   LIG A   1       8.810  -4.668  -9.115 +0.00 -0.00    -0.800 OA 
DOCKED: ATOM      7 O2   LIG A   1       7.389  -7.021  -9.231 +0.00 -0.00    -0.750 OA 
DOCKED: ATOM      8 O3   LIG A   1       6.063  -4.857  -8.485 +0.01 -0.00    -0.750 OA 
DOCKED: ATOM      9 O4   LIG A   1       7.820  -4.438  -6.607 +0.02 -0.01    -0.750 OA 
DOCKED: ATOM     10 O5   LIG A   1       9.163  -6.635  -7.306 +0.00 -0.00    -0.750 OA 
DOCKED: ATOM     11 O6   LIG A   1       6.519  -6.775  -6.741 +0.01 -0.01    -0.750 OA 
DOCKED: ATOM     12 O7   LIG A   1       5.218  -9.019  -6.966 +0.00 -0.00    -0.750 OA 
DOCKED: ATOM     13 O8   LIG A   1       4.733  -7.231  -8.614 +0.00 -0.00    -0.750 OA 
DOCKED: ATOM     14 O9   LIG A   1       7.915  -8.929  -7.450 +0.00 -0.00    -0.750 OA 
DOCKED: ATOM     15 O10  LIG A   1       8.320  -6.341  -4.795 +0.02 -0.02    -0.750 OA 
DOCKED: ATOM     16 O11  LIG A   1       6.180  -9.377  -9.505 +0.00 -0.00    -0.800 OA 
DOCKED: ATOM     17 O12  LIG A   1       3.389  -4.992  -7.904 +0.02 -0.00    -0.750 OA 
DOCKED: ATOM     18 O13  LIG A   1       7.123  -4.036  -4.046 -0.57 -0.26    -0.800 OA 
DOCKED: ATOM     19 O14  LIG A   1       9.757  -8.496  -5.408 +0.00 -0.00    -0.800 OA 
DOCKED: ATOM     20 V6   LIG A   1       5.524  -8.039  -5.373 +0.02 +0.01    +1.500 V  
DOCKED: ATOM     21 O15  LIG A   1       4.382  -8.800  -4.402 +0.00 -0.00    -0.750 OA 
DOCKED: ATOM     22 V7   LIG A   1       2.490  -8.106  -4.803 +0.01 +0.01    +1.500 V  
DOCKED: ATOM     23 O16  LIG A   1       1.635  -8.989  -3.771 +0.00 -0.00    -0.800 OA 
DOCKED: ATOM     24 O17  LIG A   1       3.056  -6.634  -3.655 +0.03 -0.00    -0.750 OA 
DOCKED: ATOM     25 V8   LIG A   1       4.072  -5.474  -4.439 +0.15 +0.02    +1.500 V  
DOCKED: ATOM     26 O18  LIG A   1       3.927  -6.881  -6.146 +0.01 -0.00    -0.750 OA 
DOCKED: ATOM     27 O19  LIG A   1       2.625  -9.218  -6.280 +0.00 -0.00    -0.750 OA 
DOCKED: ATOM     28 V9   LIG A   1       3.506  -8.516  -7.699 +0.00 +0.00    +1.500 V  
DOCKED: ATOM     29 V10  LIG A   1       1.947  -5.972  -6.931 +0.03 +0.01    +1.500 V  
DOCKED: ATOM     30 O20  LIG A   1       1.283  -7.022  -5.581 +0.01 -0.00    -0.750 OA 
DOCKED: ATOM     31 O21  LIG A   1       2.530  -4.727  -5.437 +0.04 +0.00    -0.750 OA 
DOCKED: ATOM     32 O22  LIG A   1       5.226  -4.637  -5.920 +0.03 -0.01    -0.750 OA 
DOCKED: ATOM     33 O23  LIG A   1       2.125  -7.315  -8.091 +0.00 -0.00    -0.750 OA 
DOCKED: ATOM     34 O24  LIG A   1       3.321  -9.620  -8.840 +0.00 -0.00    -0.800 OA 
DOCKED: ATOM     35 O25  LIG A   1       0.688  -5.160  -7.479 +0.02 -0.00    -0.800 OA 
DOCKED: ATOM     36 O26  LIG A   1       5.711  -6.425  -4.272 +0.03 -0.02    -0.750 OA 
DOCKED: ATOM     37 O27  LIG A   1       4.265  -4.280  -3.382 -0.01 -0.01    -0.800 OA 
DOCKED: ATOM     38 O28  LIG A   1       7.055  -8.664  -4.983 +0.00 -0.01    -0.750 OA 
DOCKED: ENDROOT
DOCKED: TORSDOF 0
DOCKED: TER
DOCKED: ENDMDL
________________________________________________________________________________


    FINAL DOCKED STATE:
    ________________________


Run:   7 / 20
Time taken for this run:   0.019s

DOCKED: MODEL        7
DOCKED: USER    Run = 7
DOCKED: USER
DOCKED: USER    Estimated Free Energy of Binding    =  +0.19 kcal/mol  [=(1)+(2)+(3)-(4)]
DOCKED: USER
DOCKED: USER    (1) Final Intermolecular Energy     =  +0.19 kcal/mol
DOCKED: USER        vdW + Hbond + desolv Energy     =  +0.18 kcal/mol
DOCKED: USER        Electrostatic Energy            =  +0.01 kcal/mol
DOCKED: USER        Moving Ligand-Fixed Receptor    =  +0.19 kcal/mol
DOCKED: USER        Moving Ligand-Moving Receptor   =  +0.00 kcal/mol
DOCKED: USER    (2) Final Total Internal Energy     =  +0.00 kcal/mol
DOCKED: USER    (3) Torsional Free Energy           =  +0.00 kcal/mol
DOCKED: USER    (4) Unbound System's Energy         =  +0.00 kcal/mol
DOCKED: USER
DOCKED: USER
DOCKED: USER                              x       y       z     vdW  Elec       q    Type
DOCKED: USER                           _______ _______ _______ _____ _____    ______ ____
DOCKED: ROOT
DOCKED: ATOM      1 V1   LIG A   1      -8.458   7.876  -8.091 +0.00 +0.00    +1.500 V  
DOCKED: ATOM      2 V2   LIG A   1      -6.790   8.607  -5.592 +0.00 +0.00    +1.500 V  
DOCKED: ATOM      3 V3   LIG A   1      -5.377   7.972  -8.268 +0.00 +0.00    +1.500 V  
DOCKED: ATOM      4 V4   LIG A   1      -6.878   5.260  -8.592 +0.00 -0.00    +1.500 V  
DOCKED: ATOM      5 V5   LIG A   1      -8.360   5.710  -5.929 +0.02 -0.00    +1.500 V  
DOCKED: ATOM      6 O1   LIG A   1      -9.582   8.688  -8.897 +0.00 -0.00    -0.800 OA 
DOCKED: ATOM      7 O2   LIG A   1      -8.039   9.138  -6.664 +0.00 -0.00    -0.750 OA 
DOCKED: ATOM      8 O3   LIG A   1      -6.758   8.665  -8.931 +0.00 -0.00    -0.750 OA 
DOCKED: ATOM      9 O4   LIG A   1      -8.097   6.448  -9.216 +0.00 -0.00    -0.750 OA 
DOCKED: ATOM     10 O5   LIG A   1      -9.381   6.871  -6.916 +0.00 +0.00    -0.750 OA 
DOCKED: ATOM     11 O6   LIG A   1      -6.675   6.890  -6.989 +0.00 +0.00    -0.750 OA 
DOCKED: ATOM     12 O7   LIG A   1      -5.281   7.419  -4.855 +0.00 -0.00    -0.750 OA 
DOCKED: ATOM     13 O8   LIG A   1      -5.305   9.109  -6.670 +0.00 -0.00    -0.750 OA 
DOCKED: ATOM     14 O9   LIG A   1      -8.017   7.310  -4.728 +0.00 +0.00    -0.750 OA 
DOCKED: ATOM     15 O10  LIG A   1      -8.044   4.597  -7.285 +0.00 +0.00    -0.750 OA 
DOCKED: ATOM     16 O11  LIG A   1      -6.735   9.697  -4.412 +0.00 -0.00    -0.800 OA 
DOCKED: ATOM     17 O12  LIG A   1      -4.020   8.674  -9.012 +0.00 -0.00    -0.750 OA 
DOCKED: ATOM     18 O13  LIG A   1      -6.899   4.091  -9.682 +0.00 +0.00    -0.800 OA 
DOCKED: ATOM     19 O14  LIG A   1      -9.404   4.915  -5.020 +0.02 +0.00    -0.800 OA 
DOCKED: ATOM     20 V6   LIG A   1      -5.313   5.785  -5.814 +0.02 -0.00    +1.500 V  
DOCKED: ATOM     21 O15  LIG A   1      -3.932   5.091  -5.150 +0.03 -0.00    -0.750 OA 
DOCKED: ATOM     22 V7   LIG A   1      -2.231   5.881  -5.991 +0.02 +0.00    +1.500 V  
DOCKED: ATOM     23 O16  LIG A   1      -1.108   5.069  -5.184 +0.03 -0.00    -0.800 OA 
DOCKED: ATOM     24 O17  LIG A   1      -2.651   4.619  -7.418 +0.01 -0.00    -0.750 OA 
DOCKED: ATOM     25 V8   LIG A   1      -3.900   5.150  -8.491 +0.00 +0.00    +1.500 V  
DOCKED: ATOM     26 O18  LIG A   1      -4.015   6.867  -7.092 +0.00 -0.00    -0.750 OA 
DOCKED: ATOM     27 O19  LIG A   1      -2.593   7.309  -4.867 +0.00 +0.00    -0.750 OA 
DOCKED: ATOM     28 V9   LIG A   1      -3.812   8.496  -5.490 +0.00 -0.00    +1.500 V  
DOCKED: ATOM     29 V10  LIG A   1      -2.329   8.047  -8.153 +0.00 -0.00    +1.500 V  
DOCKED: ATOM     30 O20  LIG A   1      -1.309   6.885  -7.165 +0.00 +0.00    -0.750 OA 
DOCKED: ATOM     31 O21  LIG A   1      -2.673   6.446  -9.354 +0.00 -0.00    -0.750 OA 
DOCKED: ATOM     32 O22  LIG A   1      -5.409   6.337  -9.227 +0.00 -0.00    -0.750 OA 
DOCKED: ATOM     33 O23  LIG A   1      -2.647   9.160  -6.796 +0.00 +0.00    -0.750 OA 
DOCKED: ATOM     34 O24  LIG A   1      -3.791   9.665  -4.401 +0.00 +0.00    -0.800 OA 
DOCKED: ATOM     35 O25  LIG A   1      -1.286   8.842  -9.061 +0.00 +0.00    -0.800 OA 
DOCKED: ATOM     36 O26  LIG A   1      -5.385   4.648  -7.412 +0.00 +0.00    -0.750 OA 
DOCKED: ATOM     37 O27  LIG A   1      -3.954   4.061  -9.669 +0.00 -0.00    -0.800 OA 
DOCKED: ATOM     38 O28  LIG A   1      -6.670   5.083  -5.070 +0.02 +0.00    -0.750 OA 
DOCKED: ENDROOT
DOCKED: TORSDOF 0
DOCKED: TER
DOCKED: ENDMDL
________________________________________________________________________________


    FINAL DOCKED STATE:
    ________________________


Run:   8 / 20
Time taken for this run:   0.019s

DOCKED: MODEL        8
DOCKED: USER    Run = 8
DOCKED: USER
DOCKED: USER    Estimated Free Energy of Binding    =  +0.11 kcal/mol  [=(1)+(2)+(3)-(4)]
DOCKED: USER
DOCKED: USER    (1) Final Intermolecular Energy     =  +0.11 kcal/mol
DOCKED: USER        vdW + Hbond + desolv Energy     =  +0.39 kcal/mol
DOCKED: USER        Electrostatic Energy            =  -0.27 kcal/mol
DOCKED: USER        Moving Ligand-Fixed Receptor    =  +0.11 kcal/mol
DOCKED: USER        Moving Ligand-Moving Receptor   =  +0.00 kcal/mol
DOCKED: USER    (2) Final Total Internal Energy     =  +0.00 kcal/mol
DOCKED: USER    (3) Torsional Free Energy           =  +0.00 kcal/mol
DOCKED: USER    (4) Unbound System's Energy         =  +0.00 kcal/mol
DOCKED: USER
DOCKED: USER
DOCKED: USER                              x       y       z     vdW  Elec       q    Type
DOCKED: USER                           _______ _______ _______ _____ _____    ______ ____
DOCKED: ROOT
DOCKED: ATOM      1 V1   LIG A   1       0.733  -6.942  -8.471 +0.00 +0.01    +1.500 V  
DOCKED: ATOM      2 V2   LIG A   1       1.346  -4.087  -7.451 +0.07 +0.01    +1.500 V  
DOCKED: ATOM      3 V3   LIG A   1       3.634  -5.884  -8.499 +0.01 +0.00    +1.500 V  
DOCKED: ATOM      4 V4   LIG A   1       2.848  -8.242  -6.620 +0.00 +0.01    +1.500 V  
DOCKED: ATOM      5 V5   LIG A   1       0.534  -6.588  -5.435 +0.05 +0.01    +1.500 V  
DOCKED: ATOM      6 O1   LIG A   1      -0.204  -7.471  -9.660 +0.00 -0.00    -0.800 OA 
DOCKED: ATOM      7 O2   LIG A   1       0.431  -5.019  -8.585 +0.00 -0.00    -0.750 OA 
DOCKED: ATOM      8 O3   LIG A   1       2.434  -6.472  -9.521 +0.00 -0.00    -0.750 OA 
DOCKED: ATOM      9 O4   LIG A   1       1.695  -8.455  -8.001 +0.00 -0.00    -0.750 OA 
DOCKED: ATOM     10 O5   LIG A   1      -0.314  -7.007  -7.007 +0.01 -0.01    -0.750 OA 
DOCKED: ATOM     11 O6   LIG A   1       2.220  -6.057  -6.930 +0.01 -0.00    -0.750 OA 
DOCKED: ATOM     12 O7   LIG A   1       2.733  -3.686  -5.986 +0.04 +0.01    -0.750 OA 
DOCKED: ATOM     13 O8   LIG A   1       2.977  -4.036  -8.429 +0.02 -0.00    -0.750 OA 
DOCKED: ATOM     14 O9   LIG A   1       0.171  -4.660  -5.960 +0.04 -0.01    -0.750 OA 
DOCKED: ATOM     15 O10  LIG A   1       1.470  -8.103  -5.359 +0.00 -0.00    -0.750 OA 
DOCKED: ATOM     16 O11  LIG A   1       0.816  -2.577  -7.598 +0.04 -0.01    -0.800 OA 
DOCKED: ATOM     17 O12  LIG A   1       5.002  -5.520  -9.440 +0.00 -0.00    -0.750 OA 
DOCKED: ATOM     18 O13  LIG A   1       3.395  -9.720  -6.354 +0.00 -0.00    -0.800 OA 
DOCKED: ATOM     19 O14  LIG A   1      -0.579  -6.770  -4.306 +0.03 -0.02    -0.800 OA 
DOCKED: ATOM     20 V6   LIG A   1       3.314  -5.342  -5.272 +0.12 +0.00    +1.500 V  
DOCKED: ATOM     21 O15  LIG A   1       4.513  -4.754  -4.251 +0.02 -0.02    -0.750 OA 
DOCKED: ATOM     22 V7   LIG A   1       6.215  -4.284  -5.302 +0.16 +0.09    +1.500 V  
DOCKED: ATOM     23 O16  LIG A   1       7.151  -3.755  -4.111 -0.59 -0.30    -0.800 OA 
DOCKED: ATOM     24 O17  LIG A   1       6.517  -6.208  -5.187 +0.02 -0.02    -0.750 OA 
DOCKED: ATOM     25 V8   LIG A   1       5.602  -7.139  -6.321 +0.02 +0.01    +1.500 V  
DOCKED: ATOM     26 O18  LIG A   1       4.727  -5.169  -6.841 +0.02 -0.00    -0.750 OA 
DOCKED: ATOM     27 O19  LIG A   1       5.253  -2.771  -5.771 -0.01 +0.02    -0.750 OA 
DOCKED: ATOM     28 V9   LIG A   1       4.100  -2.984  -7.152 +0.12 -0.00    +1.500 V  
DOCKED: ATOM     29 V10  LIG A   1       6.414  -4.639  -8.337 +0.03 +0.00    +1.500 V  
DOCKED: ATOM     30 O20  LIG A   1       7.261  -4.218  -6.765 +0.03 -0.01    -0.750 OA 
DOCKED: ATOM     31 O21  LIG A   1       6.777  -6.567  -7.812 +0.01 -0.00    -0.750 OA 
DOCKED: ATOM     32 O22  LIG A   1       4.215  -7.541  -7.786 +0.00 -0.00    -0.750 OA 
DOCKED: ATOM     33 O23  LIG A   1       5.477  -3.123  -8.413 +0.02 +0.00    -0.750 OA 
DOCKED: ATOM     34 O24  LIG A   1       3.553  -1.507  -7.418 +0.03 -0.01    -0.800 OA 
DOCKED: ATOM     35 O25  LIG A   1       7.526  -4.456  -9.466 +0.00 -0.00    -0.800 OA 
DOCKED: ATOM     36 O26  LIG A   1       3.971  -7.190  -5.343 +0.01 -0.01    -0.750 OA 
DOCKED: ATOM     37 O27  LIG A   1       6.132  -8.648  -6.174 +0.00 -0.00    -0.800 OA 
DOCKED: ATOM     38 O28  LIG A   1       1.946  -5.705  -4.332 +0.05 -0.00    -0.750 OA 
DOCKED: ENDROOT
DOCKED: TORSDOF 0
DOCKED: TER
DOCKED: ENDMDL
________________________________________________________________________________


    FINAL DOCKED STATE:
    ________________________


Run:   9 / 20
Time taken for this run:   0.019s

DOCKED: MODEL        9
DOCKED: USER    Run = 9
DOCKED: USER
DOCKED: USER    Estimated Free Energy of Binding    =  -0.13 kcal/mol  [=(1)+(2)+(3)-(4)]
DOCKED: USER
DOCKED: USER    (1) Final Intermolecular Energy     =  -0.13 kcal/mol
DOCKED: USER        vdW + Hbond + desolv Energy     =  +0.19 kcal/mol
DOCKED: USER        Electrostatic Energy            =  -0.32 kcal/mol
DOCKED: USER        Moving Ligand-Fixed Receptor    =  -0.13 kcal/mol
DOCKED: USER        Moving Ligand-Moving Receptor   =  +0.00 kcal/mol
DOCKED: USER    (2) Final Total Internal Energy     =  +0.00 kcal/mol
DOCKED: USER    (3) Torsional Free Energy           =  +0.00 kcal/mol
DOCKED: USER    (4) Unbound System's Energy         =  +0.00 kcal/mol
DOCKED: USER
DOCKED: USER
DOCKED: USER                              x       y       z     vdW  Elec       q    Type
DOCKED: USER                           _______ _______ _______ _____ _____    ______ ____
DOCKED: ROOT
DOCKED: ATOM      1 V1   LIG A   1       7.185  -6.221  -7.622 +0.02 +0.01    +1.500 V  
DOCKED: ATOM      2 V2   LIG A   1       5.583  -7.764  -5.473 +0.02 +0.01    +1.500 V  
DOCKED: ATOM      3 V3   LIG A   1       4.251  -7.018  -8.162 +0.00 +0.01    +1.500 V  
DOCKED: ATOM      4 V4   LIG A   1       5.030  -4.014  -7.889 +0.06 +0.00    +1.500 V  
DOCKED: ATOM      5 V5   LIG A   1       6.382  -4.563  -5.176 +0.15 +0.10    +1.500 V  
DOCKED: ATOM      6 O1   LIG A   1       8.534  -6.583  -8.411 +0.00 -0.00    -0.800 OA 
DOCKED: ATOM      7 O2   LIG A   1       7.000  -7.780  -6.465 +0.01 -0.01    -0.750 OA 
DOCKED: ATOM      8 O3   LIG A   1       5.808  -7.231  -8.762 +0.00 -0.00    -0.750 OA 
DOCKED: ATOM      9 O4   LIG A   1       6.553  -4.744  -8.546 +0.01 -0.00    -0.750 OA 
DOCKED: ATOM     10 O5   LIG A   1       7.734  -5.251  -6.208 +0.02 -0.02    -0.750 OA 
DOCKED: ATOM     11 O6   LIG A   1       5.134  -5.903  -6.591 +0.02 -0.01    -0.750 OA 
DOCKED: ATOM     12 O7   LIG A   1       3.772  -7.123  -4.738 +0.02 -0.01    -0.750 OA 
DOCKED: ATOM     13 O8   LIG A   1       4.357  -8.406  -6.778 +0.00 -0.00    -0.750 OA 
DOCKED: ATOM     14 O9   LIG A   1       6.373  -6.387  -4.284 +0.03 -0.03    -0.750 OA 
DOCKED: ATOM     15 O10  LIG A   1       5.890  -3.334  -6.371 +0.01 -0.00    -0.750 OA 
DOCKED: ATOM     16 O11  LIG A   1       5.724  -9.028  -4.490 +0.00 -0.00    -0.800 OA 
DOCKED: ATOM     17 O12  LIG A   1       3.175  -7.881  -9.156 +0.00 -0.00    -0.750 OA 
DOCKED: ATOM     18 O13  LIG A   1       4.830  -2.698  -8.775 +0.02 +0.00    -0.800 OA 
DOCKED: ATOM     19 O14  LIG A   1       7.121  -3.716  -4.042 -0.58 -0.34    -0.800 OA 
DOCKED: ATOM     20 V6   LIG A   1       3.455  -5.384  -5.423 +0.11 +0.00    +1.500 V  
DOCKED: ATOM     21 O15  LIG A   1       1.899  -5.172  -4.822 +0.05 +0.00    -0.750 OA 
DOCKED: ATOM     22 V7   LIG A   1       0.521  -6.182  -5.963 +0.05 +0.01    +1.500 V  
DOCKED: ATOM     23 O16  LIG A   1      -0.828  -5.820  -5.173 +0.04 -0.02    -0.800 OA 
DOCKED: ATOM     24 O17  LIG A   1       0.706  -4.622  -7.120 +0.02 -0.01    -0.750 OA 
DOCKED: ATOM     25 V8   LIG A   1       2.123  -4.639  -8.112 +0.03 +0.01    +1.500 V  
DOCKED: ATOM     26 O18  LIG A   1       2.572  -6.500  -6.993 +0.01 -0.00    -0.750 OA 
DOCKED: ATOM     27 O19  LIG A   1       1.153  -7.659  -5.039 +0.01 -0.00    -0.750 OA 
DOCKED: ATOM     28 V9   LIG A   1       2.676  -8.389  -5.696 +0.00 +0.01    +1.500 V  
DOCKED: ATOM     29 V10  LIG A   1       1.324  -7.840  -8.409 +0.00 +0.00    +1.500 V  
DOCKED: ATOM     30 O20  LIG A   1      -0.028  -7.152  -7.376 +0.00 -0.00    -0.750 OA 
DOCKED: ATOM     31 O21  LIG A   1       1.333  -6.015  -9.301 +0.00 -0.00    -0.750 OA 
DOCKED: ATOM     32 O22  LIG A   1       3.934  -5.280  -8.847 +0.01 -0.00    -0.750 OA 
DOCKED: ATOM     33 O23  LIG A   1       1.816  -9.068  -7.213 +0.00 -0.00    -0.750 OA 
DOCKED: ATOM     34 O24  LIG A   1       2.876  -9.704  -4.810 +0.00 -0.00    -0.800 OA 
DOCKED: ATOM     35 O25  LIG A   1       0.586  -8.687  -9.542 +0.00 -0.00    -0.800 OA 
DOCKED: ATOM     36 O26  LIG A   1       3.349  -3.997  -6.807 +0.03 +0.00    -0.750 OA 
DOCKED: ATOM     37 O27  LIG A   1       1.982  -3.376  -9.094 +0.01 -0.00    -0.800 OA 
DOCKED: ATOM     38 O28  LIG A   1       4.530  -4.522  -4.429 +0.01 -0.02    -0.750 OA 
DOCKED: ENDROOT
DOCKED: TORSDOF 0
DOCKED: TER
DOCKED: ENDMDL
________________________________________________________________________________


    FINAL DOCKED STATE:
    ________________________


Run:   10 / 20
Time taken for this run:   0.019s

DOCKED: MODEL        10
DOCKED: USER    Run = 10
DOCKED: USER
DOCKED: USER    Estimated Free Energy of Binding    =  +0.25 kcal/mol  [=(1)+(2)+(3)-(4)]
DOCKED: USER
DOCKED: USER    (1) Final Intermolecular Energy     =  +0.25 kcal/mol
DOCKED: USER        vdW + Hbond + desolv Energy     =  +0.25 kcal/mol
DOCKED: USER        Electrostatic Energy            =  -0.00 kcal/mol
DOCKED: USER        Moving Ligand-Fixed Receptor    =  +0.25 kcal/mol
DOCKED: USER        Moving Ligand-Moving Receptor   =  +0.00 kcal/mol
DOCKED: USER    (2) Final Total Internal Energy     =  +0.00 kcal/mol
DOCKED: USER    (3) Torsional Free Energy           =  +0.00 kcal/mol
DOCKED: USER    (4) Unbound System's Energy         =  +0.00 kcal/mol
DOCKED: USER
DOCKED: USER
DOCKED: USER                              x       y       z     vdW  Elec       q    Type
DOCKED: USER                           _______ _______ _______ _____ _____    ______ ____
DOCKED: ROOT
DOCKED: ATOM      1 V1   LIG A   1      -2.031   6.418  -8.656 +0.00 +0.00    +1.500 V  
DOCKED: ATOM      2 V2   LIG A   1      -4.292   4.314  -8.820 +0.00 +0.00    +1.500 V  
DOCKED: ATOM      3 V3   LIG A   1      -4.983   7.323  -8.659 +0.00 +0.00    +1.500 V  
DOCKED: ATOM      4 V4   LIG A   1      -3.221   7.748  -6.125 +0.00 -0.00    +1.500 V  
DOCKED: ATOM      5 V5   LIG A   1      -2.443   4.767  -6.110 +0.05 +0.01    +1.500 V  
DOCKED: ATOM      6 O1   LIG A   1      -0.825   6.767  -9.653 +0.00 +0.00    -0.800 OA 
DOCKED: ATOM      7 O2   LIG A   1      -2.878   4.936  -9.599 +0.00 -0.00    -0.750 OA 
DOCKED: ATOM      8 O3   LIG A   1      -3.551   7.494  -9.523 +0.00 -0.00    -0.750 OA 
DOCKED: ATOM      9 O4   LIG A   1      -1.997   7.833  -7.458 +0.00 +0.00    -0.750 OA 
DOCKED: ATOM     10 O5   LIG A   1      -1.324   5.251  -7.481 +0.00 -0.00    -0.750 OA 
DOCKED: ATOM     11 O6   LIG A   1      -3.931   5.980  -7.403 +0.00 -0.00    -0.750 OA 
DOCKED: ATOM     12 O7   LIG A   1      -5.823   4.192  -7.453 +0.01 +0.00    -0.750 OA 
DOCKED: ATOM     13 O8   LIG A   1      -5.523   5.616  -9.461 +0.00 -0.00    -0.750 OA 
DOCKED: ATOM     14 O9   LIG A   1      -3.193   3.421  -7.433 +0.01 -0.00    -0.750 OA 
DOCKED: ATOM     15 O10  LIG A   1      -2.339   6.335  -5.268 +0.01 -0.00    -0.750 OA 
DOCKED: ATOM     16 O11  LIG A   1      -4.712   3.009  -9.659 +0.00 +0.00    -0.800 OA 
DOCKED: ATOM     17 O12  LIG A   1      -6.186   8.240  -9.437 +0.00 -0.00    -0.750 OA 
DOCKED: ATOM     18 O13  LIG A   1      -2.847   8.989  -5.190 +0.00 +0.00    -0.800 OA 
DOCKED: ATOM     19 O14  LIG A   1      -1.574   3.787  -5.197 +0.06 -0.01    -0.800 OA 
DOCKED: ATOM     20 V6   LIG A   1      -5.428   5.390  -6.037 +0.02 -0.00    +1.500 V  
DOCKED: ATOM     21 O15  LIG A   1      -6.861   5.218  -5.174 +0.02 +0.00    -0.750 OA 
DOCKED: ATOM     22 V7   LIG A   1      -8.381   6.295  -6.041 +0.01 -0.00    +1.500 V  
DOCKED: ATOM     23 O16  LIG A   1      -9.587   5.945  -5.043 +0.01 +0.00    -0.800 OA 
DOCKED: ATOM     24 O17  LIG A   1      -7.534   7.777  -5.097 +0.00 -0.00    -0.750 OA 
DOCKED: ATOM     25 V8   LIG A   1      -6.120   8.399  -5.876 +0.00 +0.00    +1.500 V  
DOCKED: ATOM     26 O18  LIG A   1      -6.481   6.733  -7.293 +0.00 +0.00    -0.750 OA 
DOCKED: ATOM     27 O19  LIG A   1      -8.414   4.880  -7.238 +0.00 +0.00    -0.750 OA 
DOCKED: ATOM     28 V9   LIG A   1      -7.191   4.965  -8.572 +0.00 -0.00    +1.500 V  
DOCKED: ATOM     29 V10  LIG A   1      -7.969   7.946  -8.586 +0.00 +0.00    +1.500 V  
DOCKED: ATOM     30 O20  LIG A   1      -9.087   7.461  -7.215 +0.00 -0.00    -0.750 OA 
DOCKED: ATOM     31 O21  LIG A   1      -7.219   9.292  -7.264 +0.00 -0.00    -0.750 OA 
DOCKED: ATOM     32 O22  LIG A   1      -4.589   8.521  -7.243 +0.00 -0.00    -0.750 OA 
DOCKED: ATOM     33 O23  LIG A   1      -8.073   6.377  -9.428 +0.00 -0.00    -0.750 OA 
DOCKED: ATOM     34 O24  LIG A   1      -7.565   3.724  -9.506 +0.00 +0.00    -0.800 OA 
DOCKED: ATOM     35 O25  LIG A   1      -8.837   8.925  -9.499 +0.00 -0.00    -0.800 OA 
DOCKED: ATOM     36 O26  LIG A   1      -4.889   7.098  -5.235 +0.00 -0.00    -0.750 OA 
DOCKED: ATOM     37 O27  LIG A   1      -5.700   9.703  -5.038 +0.00 -0.00    -0.800 OA 
DOCKED: ATOM     38 O28  LIG A   1      -4.226   4.473  -5.260 +0.03 -0.00    -0.750 OA 
DOCKED: ENDROOT
DOCKED: TORSDOF 0
DOCKED: TER
DOCKED: ENDMDL
________________________________________________________________________________


    FINAL DOCKED STATE:
    ________________________


Run:   11 / 20
Time taken for this run:   0.019s

DOCKED: MODEL        11
DOCKED: USER    Run = 11
DOCKED: USER
DOCKED: USER    Estimated Free Energy of Binding    =  +0.07 kcal/mol  [=(1)+(2)+(3)-(4)]
DOCKED: USER
DOCKED: USER    (1) Final Intermolecular Energy     =  +0.07 kcal/mol
DOCKED: USER        vdW + Hbond + desolv Energy     =  +0.32 kcal/mol
DOCKED: USER        Electrostatic Energy            =  -0.25 kcal/mol
DOCKED: USER        Moving Ligand-Fixed Receptor    =  +0.07 kcal/mol
DOCKED: USER        Moving Ligand-Moving Receptor   =  +0.00 kcal/mol
DOCKED: USER    (2) Final Total Internal Energy     =  +0.00 kcal/mol
DOCKED: USER    (3) Torsional Free Energy           =  +0.00 kcal/mol
DOCKED: USER    (4) Unbound System's Energy         =  +0.00 kcal/mol
DOCKED: USER
DOCKED: USER
DOCKED: USER                              x       y       z     vdW  Elec       q    Type
DOCKED: USER                           _______ _______ _______ _____ _____    ______ ____
DOCKED: ROOT
DOCKED: ATOM      1 V1   LIG A   1       5.747  -8.177  -3.592 +0.02 +0.01    +1.500 V  
DOCKED: ATOM      2 V2   LIG A   1       3.276  -6.346  -3.266 +0.14 +0.01    +1.500 V  
DOCKED: ATOM      3 V3   LIG A   1       3.349  -8.467  -5.515 +0.00 +0.01    +1.500 V  
DOCKED: ATOM      4 V4   LIG A   1       6.097  -7.460  -6.584 +0.02 +0.01    +1.500 V  
DOCKED: ATOM      5 V5   LIG A   1       6.183  -5.263  -4.426 +0.14 +0.11    +1.500 V  
DOCKED: ATOM      6 O1   LIG A   1       6.429  -9.234  -2.597 +0.00 -0.00    -0.800 OA 
DOCKED: ATOM      7 O2   LIG A   1       4.291  -7.506  -2.481 +0.02 -0.00    -0.750 OA 
DOCKED: ATOM      8 O3   LIG A   1       4.252  -9.335  -4.393 +0.00 -0.00    -0.750 OA 
DOCKED: ATOM      9 O4   LIG A   1       6.592  -8.525  -5.205 +0.00 -0.01    -0.750 OA 
DOCKED: ATOM     10 O5   LIG A   1       6.650  -6.645  -3.313 +0.03 -0.02    -0.750 OA 
DOCKED: ATOM     11 O6   LIG A   1       4.554  -6.796  -5.020 +0.02 -0.01    -0.750 OA 
DOCKED: ATOM     12 O7   LIG A   1       2.520  -5.189  -4.789 +0.05 +0.00    -0.750 OA 
DOCKED: ATOM     13 O8   LIG A   1       2.178  -7.577  -4.215 +0.01 -0.00    -0.750 OA 
DOCKED: ATOM     14 O9   LIG A   1       4.671  -4.947  -3.108 +0.01 -0.02    -0.750 OA 
DOCKED: ATOM     15 O10  LIG A   1       6.962  -5.961  -5.870 +0.02 -0.02    -0.750 OA 
DOCKED: ATOM     16 O11  LIG A   1       2.274  -5.805  -2.132 +0.07 -0.00    -0.800 OA 
DOCKED: ATOM     17 O12  LIG A   1       2.138  -9.491  -6.129 +0.00 -0.00    -0.750 OA 
DOCKED: ATOM     18 O13  LIG A   1       7.087  -7.886  -7.764 +0.00 -0.00    -0.800 OA 
DOCKED: ATOM     19 O14  LIG A   1       7.149  -4.060  -4.016 -0.56 -0.26    -0.800 OA 
DOCKED: ATOM     20 V6   LIG A   1       3.732  -5.284  -6.242 +0.08 +0.01    +1.500 V  
DOCKED: ATOM     21 O15  LIG A   1       2.829  -4.415  -7.364 +0.02 -0.00    -0.750 OA 
DOCKED: ATOM     22 V7   LIG A   1       1.333  -5.575  -8.165 +0.01 +0.01    +1.500 V  
DOCKED: ATOM     23 O16  LIG A   1       0.651  -4.517  -9.160 +0.00 -0.00    -0.800 OA 
DOCKED: ATOM     24 O17  LIG A   1       2.790  -6.245  -9.276 +0.00 -0.00    -0.750 OA 
DOCKED: ATOM     25 V8   LIG A   1       3.805  -7.405  -8.491 +0.00 +0.00    +1.500 V  
DOCKED: ATOM     26 O18  LIG A   1       2.526  -6.954  -6.737 +0.01 -0.00    -0.750 OA 
DOCKED: ATOM     27 O19  LIG A   1       0.489  -5.226  -6.553 +0.02 -0.01    -0.750 OA 
DOCKED: ATOM     28 V9   LIG A   1       0.984  -6.291  -5.174 +0.08 +0.01    +1.500 V  
DOCKED: ATOM     29 V10  LIG A   1       0.898  -8.488  -7.332 +0.00 +0.00    +1.500 V  
DOCKED: ATOM     30 O20  LIG A   1       0.430  -7.106  -8.444 +0.00 -0.00    -0.750 OA 
DOCKED: ATOM     31 O21  LIG A   1       2.410  -8.805  -8.649 +0.00 -0.00    -0.750 OA 
DOCKED: ATOM     32 O22  LIG A   1       4.561  -8.562  -6.969 +0.00 -0.00    -0.750 OA 
DOCKED: ATOM     33 O23  LIG A   1       0.118  -7.789  -5.887 +0.01 -0.01    -0.750 OA 
DOCKED: ATOM     34 O24  LIG A   1      -0.007  -5.865  -3.994 +0.06 -0.02    -0.800 OA 
DOCKED: ATOM     35 O25  LIG A   1      -0.068  -9.691  -7.741 +0.00 -0.00    -0.800 OA 
DOCKED: ATOM     36 O26  LIG A   1       4.903  -6.174  -7.542 +0.01 -0.00    -0.750 OA 
DOCKED: ATOM     37 O27  LIG A   1       4.806  -7.946  -9.625 +0.00 -0.00    -0.800 OA 
DOCKED: ATOM     38 O28  LIG A   1       4.942  -4.261  -5.628 +0.02 -0.01    -0.750 OA 
DOCKED: ENDROOT
DOCKED: TORSDOF 0
DOCKED: TER
DOCKED: ENDMDL
________________________________________________________________________________


    FINAL DOCKED STATE:
    ________________________


Run:   12 / 20
Time taken for this run:   0.019s

DOCKED: MODEL        12
DOCKED: USER    Run = 12
DOCKED: USER
DOCKED: USER    Estimated Free Energy of Binding    =  -0.24 kcal/mol  [=(1)+(2)+(3)-(4)]
DOCKED: USER
DOCKED: USER    (1) Final Intermolecular Energy     =  -0.24 kcal/mol
DOCKED: USER        vdW + Hbond + desolv Energy     =  +0.05 kcal/mol
DOCKED: USER        Electrostatic Energy            =  -0.30 kcal/mol
DOCKED: USER        Moving Ligand-Fixed Receptor    =  -0.24 kcal/mol
DOCKED: USER        Moving Ligand-Moving Receptor   =  +0.00 kcal/mol
DOCKED: USER    (2) Final Total Internal Energy     =  +0.00 kcal/mol
DOCKED: USER    (3) Torsional Free Energy           =  +0.00 kcal/mol
DOCKED: USER    (4) Unbound System's Energy         =  +0.00 kcal/mol
DOCKED: USER
DOCKED: USER
DOCKED: USER                              x       y       z     vdW  Elec       q    Type
DOCKED: USER                           _______ _______ _______ _____ _____    ______ ____
DOCKED: ROOT
DOCKED: ATOM      1 V1   LIG A   1       0.727  -6.446  -6.274 +0.03 +0.01    +1.500 V  
DOCKED: ATOM      2 V2   LIG A   1       2.888  -8.479  -5.402 +0.00 +0.01    +1.500 V  
DOCKED: ATOM      3 V3   LIG A   1       3.594  -5.479  -5.657 +0.09 +0.01    +1.500 V  
DOCKED: ATOM      4 V4   LIG A   1       2.477  -5.307  -8.561 +0.01 +0.00    +1.500 V  
DOCKED: ATOM      5 V5   LIG A   1       1.729  -8.295  -8.500 +0.00 +0.00    +1.500 V  
DOCKED: ATOM      6 O1   LIG A   1      -0.681  -6.041  -5.622 +0.03 -0.02    -0.800 OA 
DOCKED: ATOM      7 O2   LIG A   1       1.330  -7.825  -5.033 +0.01 -0.00    -0.750 OA 
DOCKED: ATOM      8 O3   LIG A   1       1.998  -5.268  -5.171 +0.04 -0.00    -0.750 OA 
DOCKED: ATOM      9 O4   LIG A   1       0.973  -5.138  -7.564 +0.01 -0.00    -0.750 OA 
DOCKED: ATOM     10 O5   LIG A   1       0.318  -7.722  -7.476 +0.00 -0.00    -0.750 OA 
DOCKED: ATOM     11 O6   LIG A   1       2.868  -6.946  -7.003 +0.00 -0.00    -0.750 OA 
DOCKED: ATOM     12 O7   LIG A   1       4.698  -8.681  -6.357 +0.00 -0.00    -0.750 OA 
DOCKED: ATOM     13 O8   LIG A   1       3.932  -7.102  -4.606 +0.02 -0.01    -0.750 OA 
DOCKED: ATOM     14 O9   LIG A   1       2.148  -9.509  -6.926 +0.00 -0.00    -0.750 OA 
DOCKED: ATOM     15 O10  LIG A   1       1.823  -6.806  -9.474 +0.00 -0.00    -0.750 OA 
DOCKED: ATOM     16 O11  LIG A   1       3.101  -9.700  -4.379 +0.00 -0.00    -0.800 OA 
DOCKED: ATOM     17 O12  LIG A   1       4.578  -4.475  -4.701 +0.01 -0.02    -0.750 OA 
DOCKED: ATOM     18 O13  LIG A   1       2.331  -4.157  -9.661 +0.00 -0.00    -0.800 OA 
DOCKED: ATOM     19 O14  LIG A   1       1.101  -9.367  -9.502 +0.00 -0.00    -0.800 OA 
DOCKED: ATOM     20 V6   LIG A   1       4.646  -7.616  -7.923 +0.00 +0.01    +1.500 V  
DOCKED: ATOM     21 O15  LIG A   1       6.242  -7.828  -8.409 +0.00 -0.00    -0.750 OA 
DOCKED: ATOM     22 V7   LIG A   1       7.513  -6.649  -7.306 +0.02 +0.01    +1.500 V  
DOCKED: ATOM     23 O16  LIG A   1       8.921  -7.055  -7.959 +0.00 -0.00    -0.800 OA 
DOCKED: ATOM     24 O17  LIG A   1       6.910  -5.270  -8.547 +0.01 -0.00    -0.750 OA 
DOCKED: ATOM     25 V8   LIG A   1       5.352  -4.616  -8.179 +0.04 +0.00    +1.500 V  
DOCKED: ATOM     26 O18  LIG A   1       5.372  -6.149  -6.577 +0.02 -0.01    -0.750 OA 
DOCKED: ATOM     27 O19  LIG A   1       7.267  -7.957  -6.017 +0.01 -0.01    -0.750 OA 
DOCKED: ATOM     28 V9   LIG A   1       5.763  -7.787  -5.020 +0.02 +0.02    +1.500 V  
DOCKED: ATOM     29 V10  LIG A   1       6.511  -4.799  -5.081 +0.14 +0.10    +1.500 V  
DOCKED: ATOM     30 O20  LIG A   1       7.922  -5.373  -6.104 +0.02 -0.02    -0.750 OA 
DOCKED: ATOM     31 O21  LIG A   1       6.092  -3.586  -6.654 +0.02 -0.00    -0.750 OA 
DOCKED: ATOM     32 O22  LIG A   1       3.542  -4.414  -7.224 +0.02 -0.00    -0.750 OA 
DOCKED: ATOM     33 O23  LIG A   1       6.417  -6.290  -4.106 +0.03 -0.03    -0.750 OA 
DOCKED: ATOM     34 O24  LIG A   1       5.909  -8.938  -3.919 +0.00 -0.00    -0.800 OA 
DOCKED: ATOM     35 O25  LIG A   1       7.139  -3.728  -4.078 -0.59 -0.32    -0.800 OA 
DOCKED: ATOM     36 O26  LIG A   1       4.308  -5.993  -8.975 +0.00 -0.00    -0.750 OA 
DOCKED: ATOM     37 O27  LIG A   1       5.139  -3.396  -9.201 +0.02 -0.00    -0.800 OA 
DOCKED: ATOM     38 O28  LIG A   1       3.663  -8.620  -8.878 +0.00 -0.00    -0.750 OA 
DOCKED: ENDROOT
DOCKED: TORSDOF 0
DOCKED: TER
DOCKED: ENDMDL
________________________________________________________________________________


    FINAL DOCKED STATE:
    ________________________


Run:   13 / 20
Time taken for this run:   0.019s

DOCKED: MODEL        13
DOCKED: USER    Run = 13
DOCKED: USER
DOCKED: USER    Estimated Free Energy of Binding    =  +0.19 kcal/mol  [=(1)+(2)+(3)-(4)]
DOCKED: USER
DOCKED: USER    (1) Final Intermolecular Energy     =  +0.19 kcal/mol
DOCKED: USER        vdW + Hbond + desolv Energy     =  +0.18 kcal/mol
DOCKED: USER        Electrostatic Energy            =  +0.00 kcal/mol
DOCKED: USER        Moving Ligand-Fixed Receptor    =  +0.19 kcal/mol
DOCKED: USER        Moving Ligand-Moving Receptor   =  +0.00 kcal/mol
DOCKED: USER    (2) Final Total Internal Energy     =  +0.00 kcal/mol
DOCKED: USER    (3) Torsional Free Energy           =  +0.00 kcal/mol
DOCKED: USER    (4) Unbound System's Energy         =  +0.00 kcal/mol
DOCKED: USER
DOCKED: USER
DOCKED: USER                              x       y       z     vdW  Elec       q    Type
DOCKED: USER                           _______ _______ _______ _____ _____    ______ ____
DOCKED: ROOT
DOCKED: ATOM      1 V1   LIG A   1      -8.649   8.468  -7.472 +0.00 +0.00    +1.500 V  
DOCKED: ATOM      2 V2   LIG A   1      -6.821   8.786  -4.997 +0.00 +0.00    +1.500 V  
DOCKED: ATOM      3 V3   LIG A   1      -5.581   8.351  -7.796 +0.00 +0.00    +1.500 V  
DOCKED: ATOM      4 V4   LIG A   1      -7.307   5.814  -8.334 +0.00 -0.00    +1.500 V  
DOCKED: ATOM      5 V5   LIG A   1      -8.633   6.071  -5.565 +0.01 -0.00    +1.500 V  
DOCKED: ATOM      6 O1   LIG A   1      -9.738   9.447  -8.126 +0.00 -0.00    -0.800 OA 
DOCKED: ATOM      7 O2   LIG A   1      -8.069   9.526  -5.940 +0.00 -0.00    -0.750 OA 
DOCKED: ATOM      8 O3   LIG A   1      -6.929   9.216  -8.308 +0.00 -0.00    -0.750 OA 
DOCKED: ATOM      9 O4   LIG A   1      -8.452   7.151  -8.762 +0.00 -0.00    -0.750 OA 
DOCKED: ATOM     10 O5   LIG A   1      -9.598   7.410  -6.366 +0.00 -0.00    -0.750 OA 
DOCKED: ATOM     11 O6   LIG A   1      -6.905   7.233  -6.576 +0.00 +0.00    -0.750 OA 
DOCKED: ATOM     12 O7   LIG A   1      -5.383   7.414  -4.473 +0.00 -0.00    -0.750 OA 
DOCKED: ATOM     13 O8   LIG A   1      -5.349   9.293  -6.090 +0.00 -0.00    -0.750 OA 
DOCKED: ATOM     14 O9   LIG A   1      -8.110   7.497  -4.217 +0.00 +0.00    -0.750 OA 
DOCKED: ATOM     15 O10  LIG A   1      -8.465   5.097  -7.048 +0.00 +0.00    -0.750 OA 
DOCKED: ATOM     16 O11  LIG A   1      -6.629   9.730  -3.711 +0.00 -0.00    -0.800 OA 
DOCKED: ATOM     17 O12  LIG A   1      -4.205   9.029  -8.529 +0.00 -0.00    -0.750 OA 
DOCKED: ATOM     18 O13  LIG A   1      -7.469   4.779  -9.541 +0.00 +0.00    -0.800 OA 
DOCKED: ATOM     19 O14  LIG A   1      -9.697   5.260  -4.695 +0.02 +0.00    -0.800 OA 
DOCKED: ATOM     20 V6   LIG A   1      -5.587   5.904  -5.600 +0.02 -0.00    +1.500 V  
DOCKED: ATOM     21 O15  LIG A   1      -4.239   5.039  -5.088 +0.03 -0.00    -0.750 OA 
DOCKED: ATOM     22 V7   LIG A   1      -2.518   5.788  -5.925 +0.03 +0.00    +1.500 V  
DOCKED: ATOM     23 O16  LIG A   1      -1.430   4.809  -5.269 +0.03 -0.00    -0.800 OA 
DOCKED: ATOM     24 O17  LIG A   1      -3.099   4.729  -7.456 +0.00 -0.00    -0.750 OA 
DOCKED: ATOM     25 V8   LIG A   1      -4.346   5.469  -8.399 +0.00 +0.00    +1.500 V  
DOCKED: ATOM     26 O18  LIG A   1      -4.263   7.022  -6.819 +0.00 -0.00    -0.750 OA 
DOCKED: ATOM     27 O19  LIG A   1      -2.715   7.104  -4.635 +0.01 +0.00    -0.750 OA 
DOCKED: ATOM     28 V9   LIG A   1      -3.860   8.442  -5.062 +0.00 -0.00    +1.500 V  
DOCKED: ATOM     29 V10  LIG A   1      -2.535   8.184  -7.831 +0.00 -0.00    +1.500 V  
DOCKED: ATOM     30 O20  LIG A   1      -1.570   6.845  -7.029 +0.00 +0.00    -0.750 OA 
DOCKED: ATOM     31 O21  LIG A   1      -3.057   6.758  -9.179 +0.00 -0.00    -0.750 OA 
DOCKED: ATOM     32 O22  LIG A   1      -5.785   6.841  -8.924 +0.00 -0.00    -0.750 OA 
DOCKED: ATOM     33 O23  LIG A   1      -2.703   9.158  -6.347 +0.00 +0.00    -0.750 OA 
DOCKED: ATOM     34 O24  LIG A   1      -3.699   9.476  -3.855 +0.00 +0.00    -0.800 OA 
DOCKED: ATOM     35 O25  LIG A   1      -1.471   8.995  -8.700 +0.00 +0.00    -0.800 OA 
DOCKED: ATOM     36 O26  LIG A   1      -5.819   4.962  -7.306 +0.00 +0.00    -0.750 OA 
DOCKED: ATOM     37 O27  LIG A   1      -4.538   4.526  -9.684 +0.00 -0.00    -0.800 OA 
DOCKED: ATOM     38 O28  LIG A   1      -6.963   5.227  -4.868 +0.02 +0.00    -0.750 OA 
DOCKED: ENDROOT
DOCKED: TORSDOF 0
DOCKED: TER
DOCKED: ENDMDL
________________________________________________________________________________


    FINAL DOCKED STATE:
    ________________________


Run:   14 / 20
Time taken for this run:   0.019s

DOCKED: MODEL        14
DOCKED: USER    Run = 14
DOCKED: USER
DOCKED: USER    Estimated Free Energy of Binding    =  +0.15 kcal/mol  [=(1)+(2)+(3)-(4)]
DOCKED: USER
DOCKED: USER    (1) Final Intermolecular Energy     =  +0.15 kcal/mol
DOCKED: USER        vdW + Hbond + desolv Energy     =  +0.34 kcal/mol
DOCKED: USER        Electrostatic Energy            =  -0.19 kcal/mol
DOCKED: USER        Moving Ligand-Fixed Receptor    =  +0.15 kcal/mol
DOCKED: USER        Moving Ligand-Moving Receptor   =  +0.00 kcal/mol
DOCKED: USER    (2) Final Total Internal Energy     =  +0.00 kcal/mol
DOCKED: USER    (3) Torsional Free Energy           =  +0.00 kcal/mol
DOCKED: USER    (4) Unbound System's Energy         =  +0.00 kcal/mol
DOCKED: USER
DOCKED: USER
DOCKED: USER                              x       y       z     vdW  Elec       q    Type
DOCKED: USER                           _______ _______ _______ _____ _____    ______ ____
DOCKED: ROOT
DOCKED: ATOM      1 V1   LIG A   1       8.509  -5.259  -3.072 +0.13 +0.11    +1.500 V  
DOCKED: ATOM      2 V2   LIG A   1       8.765  -6.282  -5.979 +0.02 +0.02    +1.500 V  
DOCKED: ATOM      3 V3   LIG A   1       6.107  -5.044  -4.999 +0.13 +0.09    +1.500 V  
DOCKED: ATOM      4 V4   LIG A   1       5.962  -6.933  -2.526 +0.09 +0.03    +1.500 V  
DOCKED: ATOM      5 V5   LIG A   1       8.590  -8.306  -3.363 +0.01 +0.01    +1.500 V  
DOCKED: ATOM      6 O1   LIG A   1       9.312  -4.129  -2.264 +0.01 -0.05    -0.800 OA 
DOCKED: ATOM      7 O2   LIG A   1       9.416  -5.198  -4.797 +0.02 -0.02    -0.750 OA 
DOCKED: ATOM      8 O3   LIG A   1       7.127  -4.099  -4.053 -0.57 -0.23    -0.750 OA 
DOCKED: ATOM      9 O4   LIG A   1       7.084  -5.633  -1.947 +0.02 -0.04    -0.750 OA 
DOCKED: ATOM     10 O5   LIG A   1       9.372  -6.791  -2.685 +0.02 -0.01    -0.750 OA 
DOCKED: ATOM     11 O6   LIG A   1       7.274  -6.705  -4.395 +0.02 -0.02    -0.750 OA 
DOCKED: ATOM     12 O7   LIG A   1       7.477  -7.651  -6.811 +0.00 -0.01    -0.750 OA 
DOCKED: ATOM     13 O8   LIG A   1       7.310  -5.192  -6.542 +0.02 -0.01    -0.750 OA 
DOCKED: ATOM     14 O9   LIG A   1       9.586  -7.841  -5.071 +0.00 -0.01    -0.750 OA 
DOCKED: ATOM     15 O10  LIG A   1       7.218  -8.290  -2.226 +0.01 -0.01    -0.750 OA 
DOCKED: ATOM     16 O11  LIG A   1       9.758  -6.198  -7.240 +0.00 -0.01    -0.800 OA 
DOCKED: ATOM     17 O12  LIG A   1       4.997  -4.015  -5.775 +0.02 -0.01    -0.750 OA 
DOCKED: ATOM     18 O13  LIG A   1       4.955  -7.134  -1.301 +0.03 -0.00    -0.800 OA 
DOCKED: ATOM     19 O14  LIG A   1       9.502  -9.508  -2.842 +0.00 -0.00    -0.800 OA 
DOCKED: ATOM     20 V6   LIG A   1       6.348  -8.294  -5.431 +0.01 +0.01    +1.500 V  
DOCKED: ATOM     21 O15  LIG A   1       5.328  -9.239  -6.377 +0.00 -0.00    -0.750 OA 
DOCKED: ATOM     22 V7   LIG A   1       3.945  -8.078  -7.359 +0.00 +0.01    +1.500 V  
DOCKED: ATOM     23 O16  LIG A   1       3.143  -9.209  -8.167 +0.00 -0.00    -0.800 OA 
DOCKED: ATOM     24 O17  LIG A   1       3.039  -8.139  -5.633 +0.00 -0.00    -0.750 OA 
DOCKED: ATOM     25 V8   LIG A   1       3.689  -7.056  -4.451 +0.05 +0.01    +1.500 V  
DOCKED: ATOM     26 O18  LIG A   1       5.181  -6.632  -6.036 +0.02 -0.01    -0.750 OA 
DOCKED: ATOM     27 O19  LIG A   1       5.370  -7.704  -8.483 +0.00 -0.00    -0.750 OA 
DOCKED: ATOM     28 V9   LIG A   1       6.492  -6.404  -7.905 +0.02 +0.01    +1.500 V  
DOCKED: ATOM     29 V10  LIG A   1       3.864  -5.032  -7.067 +0.06 +0.01    +1.500 V  
DOCKED: ATOM     30 O20  LIG A   1       3.083  -6.547  -7.746 +0.00 -0.00    -0.750 OA 
DOCKED: ATOM     31 O21  LIG A   1       2.869  -5.496  -5.360 +0.03 -0.00    -0.750 OA 
DOCKED: ATOM     32 O22  LIG A   1       4.977  -5.686  -3.619 +0.03 -0.02    -0.750 OA 
DOCKED: ATOM     33 O23  LIG A   1       5.238  -5.048  -8.205 +0.01 -0.00    -0.750 OA 
DOCKED: ATOM     34 O24  LIG A   1       7.499  -6.203  -9.129 +0.00 -0.00    -0.800 OA 
DOCKED: ATOM     35 O25  LIG A   1       2.953  -3.830  -7.589 +0.03 -0.00    -0.800 OA 
DOCKED: ATOM     36 O26  LIG A   1       5.144  -8.145  -3.888 +0.01 -0.01    -0.750 OA 
DOCKED: ATOM     37 O27  LIG A   1       2.697  -7.139  -3.191 +0.03 -0.00    -0.800 OA 
DOCKED: ATOM     38 O28  LIG A   1       7.457  -9.322  -4.656 +0.00 -0.00    -0.750 OA 
DOCKED: ENDROOT
DOCKED: TORSDOF 0
DOCKED: TER
DOCKED: ENDMDL
________________________________________________________________________________


    FINAL DOCKED STATE:
    ________________________


Run:   15 / 20
Time taken for this run:   0.019s

DOCKED: MODEL        15
DOCKED: USER    Run = 15
DOCKED: USER
DOCKED: USER    Estimated Free Energy of Binding    =  +0.29 kcal/mol  [=(1)+(2)+(3)-(4)]
DOCKED: USER
DOCKED: USER    (1) Final Intermolecular Energy     =  +0.29 kcal/mol
DOCKED: USER        vdW + Hbond + desolv Energy     =  +0.26 kcal/mol
DOCKED: USER        Electrostatic Energy            =  +0.03 kcal/mol
DOCKED: USER        Moving Ligand-Fixed Receptor    =  +0.29 kcal/mol
DOCKED: USER        Moving Ligand-Moving Receptor   =  +0.00 kcal/mol
DOCKED: USER    (2) Final Total Internal Energy     =  +0.00 kcal/mol
DOCKED: USER    (3) Torsional Free Energy           =  +0.00 kcal/mol
DOCKED: USER    (4) Unbound System's Energy         =  +0.00 kcal/mol
DOCKED: USER
DOCKED: USER
DOCKED: USER                              x       y       z     vdW  Elec       q    Type
DOCKED: USER                           _______ _______ _______ _____ _____    ______ ____
DOCKED: ROOT
DOCKED: ATOM      1 V1   LIG A   1      -6.846   8.081  -7.867 +0.00 +0.00    +1.500 V  
DOCKED: ATOM      2 V2   LIG A   1      -5.653   8.561  -5.055 +0.00 +0.00    +1.500 V  
DOCKED: ATOM      3 V3   LIG A   1      -3.800   8.456  -7.528 +0.00 +0.00    +1.500 V  
DOCKED: ATOM      4 V4   LIG A   1      -4.943   5.710  -8.457 +0.00 +0.00    +1.500 V  
DOCKED: ATOM      5 V5   LIG A   1      -6.843   5.629  -6.033 +0.02 -0.00    +1.500 V  
DOCKED: ATOM      6 O1   LIG A   1      -7.917   8.909  -8.727 +0.00 -0.00    -0.800 OA 
DOCKED: ATOM      7 O2   LIG A   1      -6.778   9.143  -6.233 +0.00 -0.00    -0.750 OA 
DOCKED: ATOM      8 O3   LIG A   1      -5.133   9.125  -8.306 +0.00 -0.00    -0.750 OA 
DOCKED: ATOM      9 O4   LIG A   1      -6.174   6.873  -9.102 +0.00 -0.00    -0.750 OA 
DOCKED: ATOM     10 O5   LIG A   1      -7.822   6.838  -7.005 +0.00 +0.00    -0.750 OA 
DOCKED: ATOM     11 O6   LIG A   1      -5.152   7.090  -6.636 +0.00 -0.00    -0.750 OA 
DOCKED: ATOM     12 O7   LIG A   1      -4.154   7.405  -4.252 +0.00 -0.00    -0.750 OA 
DOCKED: ATOM     13 O8   LIG A   1      -4.086   9.342  -5.800 +0.00 +0.00    -0.750 OA 
DOCKED: ATOM     14 O9   LIG A   1      -6.851   7.053  -4.586 +0.00 +0.00    -0.750 OA 
DOCKED: ATOM     15 O10  LIG A   1      -6.213   4.763  -7.458 +0.00 +0.00    -0.750 OA 
DOCKED: ATOM     16 O11  LIG A   1      -5.889   9.462  -3.745 +0.00 -0.00    -0.800 OA 
DOCKED: ATOM     17 O12  LIG A   1      -2.429   9.373  -7.940 +0.00 +0.00    -0.750 OA 
DOCKED: ATOM     18 O13  LIG A   1      -4.679   4.721  -9.684 +0.00 -0.00    -0.800 OA 
DOCKED: ATOM     19 O14  LIG A   1      -7.920   4.622  -5.422 +0.02 +0.01    -0.800 OA 
DOCKED: ATOM     20 V6   LIG A   1      -3.871   5.937  -5.417 +0.03 +0.00    +1.500 V  
DOCKED: ATOM     21 O15  LIG A   1      -2.538   5.269  -4.639 +0.03 -0.01    -0.750 OA 
DOCKED: ATOM     22 V7   LIG A   1      -0.824   6.314  -5.078 +0.05 -0.01    +1.500 V  
DOCKED: ATOM     23 O16  LIG A   1       0.246   5.485  -4.218 +0.04 +0.02    -0.800 OA 
DOCKED: ATOM     24 O17  LIG A   1      -0.893   5.251  -6.712 +0.01 +0.00    -0.750 OA 
DOCKED: ATOM     25 V8   LIG A   1      -2.018   5.832  -7.891 +0.00 +0.00    +1.500 V  
DOCKED: ATOM     26 O18  LIG A   1      -2.519   7.303  -6.309 +0.00 +0.00    -0.750 OA 
DOCKED: ATOM     27 O19  LIG A   1      -1.497   7.521  -3.843 +0.01 +0.00    -0.750 OA 
DOCKED: ATOM     28 V9   LIG A   1      -2.728   8.683  -4.488 +0.00 -0.00    +1.500 V  
DOCKED: ATOM     29 V10  LIG A   1      -0.828   8.765  -6.913 +0.00 -0.00    +1.500 V  
DOCKED: ATOM     30 O20  LIG A   1       0.151   7.556  -5.940 +0.00 +0.01    -0.750 OA 
DOCKED: ATOM     31 O21  LIG A   1      -0.820   7.341  -8.360 +0.00 +0.00    -0.750 OA 
DOCKED: ATOM     32 O22  LIG A   1      -3.517   6.988  -8.693 +0.00 -0.00    -0.750 OA 
DOCKED: ATOM     33 O23  LIG A   1      -1.459   9.631  -5.486 +0.00 +0.00    -0.750 OA 
DOCKED: ATOM     34 O24  LIG A   1      -2.992   9.673  -3.261 +0.00 +0.00    -0.800 OA 
DOCKED: ATOM     35 O25  LIG A   1       0.249   9.772  -7.523 +0.00 +0.00    -0.800 OA 
DOCKED: ATOM     36 O26  LIG A   1      -3.585   5.052  -7.145 +0.00 -0.00    -0.750 OA 
DOCKED: ATOM     37 O27  LIG A   1      -1.782   4.933  -9.199 +0.00 -0.00    -0.800 OA 
DOCKED: ATOM     38 O28  LIG A   1      -5.241   5.021  -5.005 +0.03 +0.00    -0.750 OA 
DOCKED: ENDROOT
DOCKED: TORSDOF 0
DOCKED: TER
DOCKED: ENDMDL
________________________________________________________________________________


    FINAL DOCKED STATE:
    ________________________


Run:   16 / 20
Time taken for this run:   0.019s

DOCKED: MODEL        16
DOCKED: USER    Run = 16
DOCKED: USER
DOCKED: USER    Estimated Free Energy of Binding    =  +0.07 kcal/mol  [=(1)+(2)+(3)-(4)]
DOCKED: USER
DOCKED: USER    (1) Final Intermolecular Energy     =  +0.07 kcal/mol
DOCKED: USER        vdW + Hbond + desolv Energy     =  +0.31 kcal/mol
DOCKED: USER        Electrostatic Energy            =  -0.24 kcal/mol
DOCKED: USER        Moving Ligand-Fixed Receptor    =  +0.07 kcal/mol
DOCKED: USER        Moving Ligand-Moving Receptor   =  +0.00 kcal/mol
DOCKED: USER    (2) Final Total Internal Energy     =  +0.00 kcal/mol
DOCKED: USER    (3) Torsional Free Energy           =  +0.00 kcal/mol
DOCKED: USER    (4) Unbound System's Energy         =  +0.00 kcal/mol
DOCKED: USER
DOCKED: USER
DOCKED: USER                              x       y       z     vdW  Elec       q    Type
DOCKED: USER                           _______ _______ _______ _____ _____    ______ ____
DOCKED: ROOT
DOCKED: ATOM      1 V1   LIG A   1       1.316  -6.416  -5.065 +0.08 +0.01    +1.500 V  
DOCKED: ATOM      2 V2   LIG A   1       3.958  -5.555  -3.709 +0.18 +0.02    +1.500 V  
DOCKED: ATOM      3 V3   LIG A   1       3.775  -5.706  -6.792 +0.05 +0.01    +1.500 V  
DOCKED: ATOM      4 V4   LIG A   1       2.694  -8.628  -6.736 +0.00 +0.00    +1.500 V  
DOCKED: ATOM      5 V5   LIG A   1       2.837  -8.671  -3.659 +0.01 +0.00    +1.500 V  
DOCKED: ATOM      6 O1   LIG A   1      -0.158  -5.784  -5.026 +0.04 -0.02    -0.800 OA 
DOCKED: ATOM      7 O2   LIG A   1       2.273  -5.203  -3.875 +0.05 +0.00    -0.750 OA 
DOCKED: ATOM      8 O3   LIG A   1       2.179  -5.251  -6.519 +0.03 -0.00    -0.750 OA 
DOCKED: ATOM      9 O4   LIG A   1       1.193  -7.661  -6.432 +0.00 -0.00    -0.750 OA 
DOCKED: ATOM     10 O5   LIG A   1       1.307  -7.664  -3.767 +0.02 -0.00    -0.750 OA 
DOCKED: ATOM     11 O6   LIG A   1       3.520  -7.111  -5.226 +0.01 -0.00    -0.750 OA 
DOCKED: ATOM     12 O7   LIG A   1       5.763  -6.474  -4.068 +0.03 -0.02    -0.750 OA 
DOCKED: ATOM     13 O8   LIG A   1       4.551  -4.695  -5.299 +0.03 -0.01    -0.750 OA 
DOCKED: ATOM     14 O9   LIG A   1       3.566  -7.125  -2.563 +0.03 -0.00    -0.750 OA 
DOCKED: ATOM     15 O10  LIG A   1       2.512  -9.600  -5.146 +0.00 -0.00    -0.750 OA 
DOCKED: ATOM     16 O11  LIG A   1       4.500  -4.563  -2.566 +0.01 -0.01    -0.800 OA 
DOCKED: ATOM     17 O12  LIG A   1       4.415  -4.699  -8.003 +0.02 -0.00    -0.750 OA 
DOCKED: ATOM     18 O13  LIG A   1       2.239  -9.697  -7.834 +0.00 -0.00    -0.800 OA 
DOCKED: ATOM     19 O14  LIG A   1       2.558  -9.719  -2.487 +0.00 -0.00    -0.800 OA 
DOCKED: ATOM     20 V6   LIG A   1       5.428  -8.009  -5.127 +0.02 +0.01    +1.500 V  
DOCKED: ATOM     21 O15  LIG A   1       7.023  -8.465  -5.399 +0.00 -0.01    -0.750 OA 
DOCKED: ATOM     22 V7   LIG A   1       7.887  -7.299  -6.854 +0.01 +0.01    +1.500 V  
DOCKED: ATOM     23 O16  LIG A   1       9.361  -7.931  -6.892 +0.00 -0.00    -0.800 OA 
DOCKED: ATOM     24 O17  LIG A   1       6.929  -8.512  -8.044 +0.00 -0.00    -0.750 OA 
DOCKED: ATOM     25 V8   LIG A   1       5.244  -8.160  -8.210 +0.00 +0.00    +1.500 V  
DOCKED: ATOM     26 O18  LIG A   1       5.682  -6.605  -6.692 +0.01 -0.01    -0.750 OA 
DOCKED: ATOM     27 O19  LIG A   1       8.009  -6.054  -5.486 +0.02 -0.02    -0.750 OA 
DOCKED: ATOM     28 V9   LIG A   1       6.508  -5.087  -5.183 +0.12 +0.08    +1.500 V  
DOCKED: ATOM     29 V10  LIG A   1       6.365  -5.044  -8.260 +0.02 +0.01    +1.500 V  
DOCKED: ATOM     30 O20  LIG A   1       7.895  -6.051  -8.151 +0.01 -0.00    -0.750 OA 
DOCKED: ATOM     31 O21  LIG A   1       5.636  -6.590  -9.356 +0.00 -0.00    -0.750 OA 
DOCKED: ATOM     32 O22  LIG A   1       3.439  -7.242  -7.851 +0.00 -0.00    -0.750 OA 
DOCKED: ATOM     33 O23  LIG A   1       6.690  -4.115  -6.772 +0.03 -0.01    -0.750 OA 
DOCKED: ATOM     34 O24  LIG A   1       6.963  -4.018  -4.085 -0.53 -0.26    -0.800 OA 
DOCKED: ATOM     35 O25  LIG A   1       6.645  -3.996  -9.431 +0.01 -0.00    -0.800 OA 
DOCKED: ATOM     36 O26  LIG A   1       4.651  -9.020  -6.620 +0.00 -0.00    -0.750 OA 
DOCKED: ATOM     37 O27  LIG A   1       4.703  -9.151  -9.352 +0.00 -0.00    -0.800 OA 
DOCKED: ATOM     38 O28  LIG A   1       4.787  -9.015  -3.917 +0.00 -0.00    -0.750 OA 
DOCKED: ENDROOT
DOCKED: TORSDOF 0
DOCKED: TER
DOCKED: ENDMDL
________________________________________________________________________________


    FINAL DOCKED STATE:
    ________________________


Run:   17 / 20
Time taken for this run:   0.019s

DOCKED: MODEL        17
DOCKED: USER    Run = 17
DOCKED: USER
DOCKED: USER    Estimated Free Energy of Binding    =  +0.20 kcal/mol  [=(1)+(2)+(3)-(4)]
DOCKED: USER
DOCKED: USER    (1) Final Intermolecular Energy     =  +0.20 kcal/mol
DOCKED: USER        vdW + Hbond + desolv Energy     =  +0.20 kcal/mol
DOCKED: USER        Electrostatic Energy            =  +0.01 kcal/mol
DOCKED: USER        Moving Ligand-Fixed Receptor    =  +0.20 kcal/mol
DOCKED: USER        Moving Ligand-Moving Receptor   =  +0.00 kcal/mol
DOCKED: USER    (2) Final Total Internal Energy     =  +0.00 kcal/mol
DOCKED: USER    (3) Torsional Free Energy           =  +0.00 kcal/mol
DOCKED: USER    (4) Unbound System's Energy         =  +0.00 kcal/mol
DOCKED: USER
DOCKED: USER
DOCKED: USER                              x       y       z     vdW  Elec       q    Type
DOCKED: USER                           _______ _______ _______ _____ _____    ______ ____
DOCKED: ROOT
DOCKED: ATOM      1 V1   LIG A   1      -8.502   5.552  -5.924 +0.02 -0.00    +1.500 V  
DOCKED: ATOM      2 V2   LIG A   1      -6.785   5.032  -8.443 +0.00 -0.00    +1.500 V  
DOCKED: ATOM      3 V3   LIG A   1      -5.425   5.745  -5.759 +0.02 -0.00    +1.500 V  
DOCKED: ATOM      4 V4   LIG A   1      -7.174   8.295  -5.376 +0.00 +0.00    +1.500 V  
DOCKED: ATOM      5 V5   LIG A   1      -8.621   7.760  -8.043 +0.00 +0.00    +1.500 V  
DOCKED: ATOM      6 O1   LIG A   1      -9.540   4.622  -5.131 +0.02 +0.00    -0.800 OA 
DOCKED: ATOM      7 O2   LIG A   1      -7.973   4.364  -7.377 +0.01 +0.00    -0.750 OA 
DOCKED: ATOM      8 O3   LIG A   1      -6.731   4.911  -5.106 +0.03 +0.01    -0.750 OA 
DOCKED: ATOM      9 O4   LIG A   1      -8.272   6.986  -4.772 +0.00 +0.00    -0.750 OA 
DOCKED: ATOM     10 O5   LIG A   1      -9.522   6.488  -7.076 +0.00 +0.00    -0.750 OA 
DOCKED: ATOM     11 O6   LIG A   1      -6.826   6.724  -7.012 +0.00 +0.00    -0.750 OA 
DOCKED: ATOM     12 O7   LIG A   1      -5.399   6.371  -9.160 +0.00 -0.00    -0.750 OA 
DOCKED: ATOM     13 O8   LIG A   1      -5.254   4.652  -7.380 +0.00 +0.00    -0.750 OA 
DOCKED: ATOM     14 O9   LIG A   1      -8.133   6.223  -9.277 +0.00 +0.00    -0.750 OA 
DOCKED: ATOM     15 O10  LIG A   1      -8.404   8.871  -6.665 +0.00 -0.00    -0.750 OA 
DOCKED: ATOM     16 O11  LIG A   1      -6.634   3.975  -9.644 +0.00 +0.00    -0.800 OA 
DOCKED: ATOM     17 O12  LIG A   1      -4.004   5.159  -5.033 +0.03 -0.00    -0.750 OA 
DOCKED: ATOM     18 O13  LIG A   1      -7.300   9.435  -4.263 +0.00 -0.00    -0.800 OA 
DOCKED: ATOM     19 O14  LIG A   1      -9.740   8.470  -8.932 +0.00 -0.00    -0.800 OA 
DOCKED: ATOM     20 V6   LIG A   1      -5.580   7.976  -8.168 +0.00 +0.00    +1.500 V  
DOCKED: ATOM     21 O15  LIG A   1      -4.275   8.810  -8.823 +0.00 -0.00    -0.750 OA 
DOCKED: ATOM     22 V7   LIG A   1      -2.503   8.169  -8.003 +0.00 -0.00    +1.500 V  
DOCKED: ATOM     23 O16  LIG A   1      -1.465   9.099  -8.798 +0.00 +0.00    -0.800 OA 
DOCKED: ATOM     24 O17  LIG A   1      -3.033   9.357  -6.550 +0.00 +0.00    -0.750 OA 
DOCKED: ATOM     25 V8   LIG A   1      -4.221   8.689  -5.484 +0.00 -0.00    +1.500 V  
DOCKED: ATOM     26 O18  LIG A   1      -4.180   6.997  -6.916 +0.00 -0.00    -0.750 OA 
DOCKED: ATOM     27 O19  LIG A   1      -2.734   6.735  -9.155 +0.00 -0.00    -0.750 OA 
DOCKED: ATOM     28 V9   LIG A   1      -3.831   5.426  -8.552 +0.00 +0.00    +1.500 V  
DOCKED: ATOM     29 V10  LIG A   1      -2.385   5.961  -5.885 +0.02 +0.00    +1.500 V  
DOCKED: ATOM     30 O20  LIG A   1      -1.484   7.233  -6.852 +0.00 +0.00    -0.750 OA 
DOCKED: ATOM     31 O21  LIG A   1      -2.872   7.498  -4.651 +0.00 +0.00    -0.750 OA 
DOCKED: ATOM     32 O22  LIG A   1      -5.607   7.350  -4.767 +0.00 -0.00    -0.750 OA 
DOCKED: ATOM     33 O23  LIG A   1      -2.602   4.850  -7.263 +0.01 -0.00    -0.750 OA 
DOCKED: ATOM     34 O24  LIG A   1      -3.705   4.286  -9.665 +0.00 -0.00    -0.800 OA 
DOCKED: ATOM     35 O25  LIG A   1      -1.266   5.251  -4.996 +0.03 +0.00    -0.800 OA 
DOCKED: ATOM     36 O26  LIG A   1      -5.752   9.070  -6.548 +0.00 -0.00    -0.750 OA 
DOCKED: ATOM     37 O27  LIG A   1      -4.372   9.745  -4.284 +0.00 +0.00    -0.800 OA 
DOCKED: ATOM     38 O28  LIG A   1      -7.001   8.561  -8.894 +0.00 -0.00    -0.750 OA 
DOCKED: ENDROOT
DOCKED: TORSDOF 0
DOCKED: TER
DOCKED: ENDMDL
________________________________________________________________________________


    FINAL DOCKED STATE:
    ________________________


Run:   18 / 20
Time taken for this run:   0.019s

DOCKED: MODEL        18
DOCKED: USER    Run = 18
DOCKED: USER
DOCKED: USER    Estimated Free Energy of Binding    =  +0.18 kcal/mol  [=(1)+(2)+(3)-(4)]
DOCKED: USER
DOCKED: USER    (1) Final Intermolecular Energy     =  +0.18 kcal/mol
DOCKED: USER        vdW + Hbond + desolv Energy     =  +0.18 kcal/mol
DOCKED: USER        Electrostatic Energy            =  +0.01 kcal/mol
DOCKED: USER        Moving Ligand-Fixed Receptor    =  +0.18 kcal/mol
DOCKED: USER        Moving Ligand-Moving Receptor   =  +0.00 kcal/mol
DOCKED: USER    (2) Final Total Internal Energy     =  +0.00 kcal/mol
DOCKED: USER    (3) Torsional Free Energy           =  +0.00 kcal/mol
DOCKED: USER    (4) Unbound System's Energy         =  +0.00 kcal/mol
DOCKED: USER
DOCKED: USER
DOCKED: USER                              x       y       z     vdW  Elec       q    Type
DOCKED: USER                           _______ _______ _______ _____ _____    ______ ____
DOCKED: ROOT
DOCKED: ATOM      1 V1   LIG A   1      -8.565   7.702  -8.353 +0.00 +0.00    +1.500 V  
DOCKED: ATOM      2 V2   LIG A   1      -6.866   8.572  -5.920 +0.00 +0.00    +1.500 V  
DOCKED: ATOM      3 V3   LIG A   1      -5.484   7.728  -8.554 +0.00 +0.00    +1.500 V  
DOCKED: ATOM      4 V4   LIG A   1      -7.037   5.029  -8.681 +0.00 -0.00    +1.500 V  
DOCKED: ATOM      5 V5   LIG A   1      -8.492   5.689  -6.047 +0.01 -0.00    +1.500 V  
DOCKED: ATOM      6 O1   LIG A   1      -9.680   8.477  -9.207 +0.00 -0.00    -0.800 OA 
DOCKED: ATOM      7 O2   LIG A   1      -8.113   9.051  -7.020 +0.00 -0.00    -0.750 OA 
DOCKED: ATOM      8 O3   LIG A   1      -6.857   8.400  -9.256 +0.00 -0.00    -0.750 OA 
DOCKED: ATOM      9 O4   LIG A   1      -8.238   6.193  -9.378 +0.00 -0.00    -0.750 OA 
DOCKED: ATOM     10 O5   LIG A   1      -9.498   6.799  -7.106 +0.00 +0.00    -0.750 OA 
DOCKED: ATOM     11 O6   LIG A   1      -6.792   6.761  -7.196 +0.00 +0.00    -0.750 OA 
DOCKED: ATOM     12 O7   LIG A   1      -5.374   7.411  -5.112 +0.00 -0.00    -0.750 OA 
DOCKED: ATOM     13 O8   LIG A   1      -5.380   8.971  -7.039 +0.00 -0.00    -0.750 OA 
DOCKED: ATOM     14 O9   LIG A   1      -8.110   7.362  -4.962 +0.00 +0.00    -0.750 OA 
DOCKED: ATOM     15 O10  LIG A   1      -8.205   4.479  -7.325 +0.01 +0.00    -0.750 OA 
DOCKED: ATOM     16 O11  LIG A   1      -6.784   9.740  -4.819 +0.00 -0.00    -0.800 OA 
DOCKED: ATOM     17 O12  LIG A   1      -4.119   8.352  -9.353 +0.00 -0.00    -0.750 OA 
DOCKED: ATOM     18 O13  LIG A   1      -7.086   3.788  -9.687 +0.00 +0.00    -0.800 OA 
DOCKED: ATOM     19 O14  LIG A   1      -9.543   4.978  -5.079 +0.02 +0.00    -0.800 OA 
DOCKED: ATOM     20 V6   LIG A   1      -5.442   5.715  -5.955 +0.02 -0.00    +1.500 V  
DOCKED: ATOM     21 O15  LIG A   1      -4.070   5.044  -5.253 +0.03 -0.00    -0.750 OA 
DOCKED: ATOM     22 V7   LIG A   1      -2.361   5.741  -6.156 +0.02 +0.00    +1.500 V  
DOCKED: ATOM     23 O16  LIG A   1      -1.247   4.966  -5.301 +0.03 -0.00    -0.800 OA 
DOCKED: ATOM     24 O17  LIG A   1      -2.814   4.392  -7.490 +0.01 -0.00    -0.750 OA 
DOCKED: ATOM     25 V8   LIG A   1      -4.060   4.870  -8.589 +0.00 +0.00    +1.500 V  
DOCKED: ATOM     26 O18  LIG A   1      -4.134   6.682  -7.313 +0.00 -0.00    -0.750 OA 
DOCKED: ATOM     27 O19  LIG A   1      -2.689   7.250  -5.131 +0.00 +0.00    -0.750 OA 
DOCKED: ATOM     28 V9   LIG A   1      -3.890   8.414  -5.828 +0.00 -0.00    +1.500 V  
DOCKED: ATOM     29 V10  LIG A   1      -2.435   7.754  -8.462 +0.00 -0.00    +1.500 V  
DOCKED: ATOM     30 O20  LIG A   1      -1.429   6.645  -7.402 +0.00 +0.00    -0.750 OA 
DOCKED: ATOM     31 O21  LIG A   1      -2.816   6.081  -9.548 +0.00 -0.00    -0.750 OA 
DOCKED: ATOM     32 O22  LIG A   1      -5.552   6.032  -9.398 +0.00 -0.00    -0.750 OA 
DOCKED: ATOM     33 O23  LIG A   1      -2.722   8.964  -7.184 +0.00 +0.00    -0.750 OA 
DOCKED: ATOM     34 O24  LIG A   1      -3.840   9.655  -4.822 +0.00 +0.00    -0.800 OA 
DOCKED: ATOM     35 O25  LIG A   1      -1.383   8.465  -9.429 +0.00 +0.00    -0.800 OA 
DOCKED: ATOM     36 O26  LIG A   1      -5.547   4.472  -7.470 +0.01 +0.00    -0.750 OA 
DOCKED: ATOM     37 O27  LIG A   1      -4.142   3.704  -9.690 +0.00 -0.00    -0.800 OA 
DOCKED: ATOM     38 O28  LIG A   1      -6.806   5.091  -5.157 +0.02 +0.00    -0.750 OA 
DOCKED: ENDROOT
DOCKED: TORSDOF 0
DOCKED: TER
DOCKED: ENDMDL
________________________________________________________________________________


    FINAL DOCKED STATE:
    ________________________


Run:   19 / 20
Time taken for this run:   0.019s

DOCKED: MODEL        19
DOCKED: USER    Run = 19
DOCKED: USER
DOCKED: USER    Estimated Free Energy of Binding    =  -0.22 kcal/mol  [=(1)+(2)+(3)-(4)]
DOCKED: USER
DOCKED: USER    (1) Final Intermolecular Energy     =  -0.22 kcal/mol
DOCKED: USER        vdW + Hbond + desolv Energy     =  +0.01 kcal/mol
DOCKED: USER        Electrostatic Energy            =  -0.22 kcal/mol
DOCKED: USER        Moving Ligand-Fixed Receptor    =  -0.22 kcal/mol
DOCKED: USER        Moving Ligand-Moving Receptor   =  +0.00 kcal/mol
DOCKED: USER    (2) Final Total Internal Energy     =  +0.00 kcal/mol
DOCKED: USER    (3) Torsional Free Energy           =  +0.00 kcal/mol
DOCKED: USER    (4) Unbound System's Energy         =  +0.00 kcal/mol
DOCKED: USER
DOCKED: USER
DOCKED: USER                              x       y       z     vdW  Elec       q    Type
DOCKED: USER                           _______ _______ _______ _____ _____    ______ ____
DOCKED: ROOT
DOCKED: ATOM      1 V1   LIG A   1       8.470  -5.721  -7.916 +0.02 +0.01    +1.500 V  
DOCKED: ATOM      2 V2   LIG A   1       6.842  -8.292  -8.467 +0.00 +0.00    +1.500 V  
DOCKED: ATOM      3 V3   LIG A   1       5.386  -5.650  -7.788 +0.03 +0.01    +1.500 V  
DOCKED: ATOM      4 V4   LIG A   1       7.069  -5.211  -5.202 +0.11 +0.08    +1.500 V  
DOCKED: ATOM      5 V5   LIG A   1       8.608  -7.832  -5.702 +0.01 +0.01    +1.500 V  
DOCKED: ATOM      6 O1   LIG A   1       9.503  -4.897  -8.826 +0.00 -0.00    -0.800 OA 
DOCKED: ATOM      7 O2   LIG A   1       8.010  -7.191  -9.112 +0.00 -0.00    -0.750 OA 
DOCKED: ATOM      8 O3   LIG A   1       6.688  -4.958  -8.595 +0.01 -0.00    -0.750 OA 
DOCKED: ATOM      9 O4   LIG A   1       8.175  -4.575  -6.489 +0.02 -0.01    -0.750 OA 
DOCKED: ATOM     10 O5   LIG A   1       9.505  -6.840  -6.957 +0.00 -0.01    -0.750 OA 
DOCKED: ATOM     11 O6   LIG A   1       6.804  -6.858  -6.777 +0.01 -0.01    -0.750 OA 
DOCKED: ATOM     12 O7   LIG A   1       5.451  -9.050  -7.156 +0.00 -0.00    -0.750 OA 
DOCKED: ATOM     13 O8   LIG A   1       5.287  -7.277  -8.881 +0.00 -0.00    -0.750 OA 
DOCKED: ATOM     14 O9   LIG A   1       8.191  -9.083  -7.247 +0.00 -0.00    -0.750 OA 
DOCKED: ATOM     15 O10  LIG A   1       8.325  -6.461  -4.598 +0.02 -0.02    -0.750 OA 
DOCKED: ATOM     16 O11  LIG A   1       6.750  -9.499  -9.525 +0.00 -0.00    -0.800 OA 
DOCKED: ATOM     17 O12  LIG A   1       3.956  -4.970  -8.404 +0.01 -0.00    -0.750 OA 
DOCKED: ATOM     18 O13  LIG A   1       7.137  -4.093  -4.061 -0.57 -0.24    -0.800 OA 
DOCKED: ATOM     19 O14  LIG A   1       9.738  -8.686  -4.967 +0.00 -0.00    -0.800 OA 
DOCKED: ATOM     20 V6   LIG A   1       5.569  -8.052  -5.549 +0.02 +0.01    +1.500 V  
DOCKED: ATOM     21 O15  LIG A   1       4.267  -8.745  -4.742 +0.00 -0.00    -0.750 OA 
DOCKED: ATOM     22 V7   LIG A   1       2.484  -7.981  -5.422 +0.01 +0.01    +1.500 V  
DOCKED: ATOM     23 O16  LIG A   1       1.452  -8.806  -4.512 +0.00 -0.00    -0.800 OA 
DOCKED: ATOM     24 O17  LIG A   1       2.944  -6.511  -4.225 +0.03 -0.00    -0.750 OA 
DOCKED: ATOM     25 V8   LIG A   1       4.112  -5.410  -4.870 +0.14 +0.02    +1.500 V  
DOCKED: ATOM     26 O18  LIG A   1       4.151  -6.844  -6.560 +0.01 -0.00    -0.750 OA 
DOCKED: ATOM     27 O19  LIG A   1       2.780  -9.127  -6.848 +0.00 -0.00    -0.750 OA 
DOCKED: ATOM     28 V9   LIG A   1       3.886  -8.491  -8.135 +0.00 +0.00    +1.500 V  
DOCKED: ATOM     29 V10  LIG A   1       2.347  -5.869  -7.635 +0.02 +0.01    +1.500 V  
DOCKED: ATOM     30 O20  LIG A   1       1.450  -6.863  -6.380 +0.01 -0.00    -0.750 OA 
DOCKED: ATOM     31 O21  LIG A   1       2.764  -4.619  -6.090 +0.03 +0.00    -0.750 OA 
DOCKED: ATOM     32 O22  LIG A   1       5.503  -4.652  -6.181 +0.03 -0.01    -0.750 OA 
DOCKED: ATOM     33 O23  LIG A   1       2.630  -7.241  -8.739 +0.00 -0.00    -0.750 OA 
DOCKED: ATOM     34 O24  LIG A   1       3.818  -9.609  -9.276 +0.00 -0.00    -0.800 OA 
DOCKED: ATOM     35 O25  LIG A   1       1.217  -5.017  -8.370 +0.01 -0.00    -0.800 OA 
DOCKED: ATOM     36 O26  LIG A   1       5.667  -6.425  -4.456 +0.03 -0.02    -0.750 OA 
DOCKED: ATOM     37 O27  LIG A   1       4.204  -4.204  -3.813 -0.01 -0.00    -0.800 OA 
DOCKED: ATOM     38 O28  LIG A   1       6.999  -8.732  -4.934 +0.00 -0.01    -0.750 OA 
DOCKED: ENDROOT
DOCKED: TORSDOF 0
DOCKED: TER
DOCKED: ENDMDL
________________________________________________________________________________


    FINAL DOCKED STATE:
    ________________________


Run:   20 / 20
Time taken for this run:   0.019s

DOCKED: MODEL        20
DOCKED: USER    Run = 20
DOCKED: USER
DOCKED: USER    Estimated Free Energy of Binding    =  +0.21 kcal/mol  [=(1)+(2)+(3)-(4)]
DOCKED: USER
DOCKED: USER    (1) Final Intermolecular Energy     =  +0.21 kcal/mol
DOCKED: USER        vdW + Hbond + desolv Energy     =  +0.21 kcal/mol
DOCKED: USER        Electrostatic Energy            =  +0.00 kcal/mol
DOCKED: USER        Moving Ligand-Fixed Receptor    =  +0.21 kcal/mol
DOCKED: USER        Moving Ligand-Moving Receptor   =  +0.00 kcal/mol
DOCKED: USER    (2) Final Total Internal Energy     =  +0.00 kcal/mol
DOCKED: USER    (3) Torsional Free Energy           =  +0.00 kcal/mol
DOCKED: USER    (4) Unbound System's Energy         =  +0.00 kcal/mol
DOCKED: USER
DOCKED: USER
DOCKED: USER                              x       y       z     vdW  Elec       q    Type
DOCKED: USER                           _______ _______ _______ _____ _____    ______ ____
DOCKED: ROOT
DOCKED: ATOM      1 V1   LIG A   1      -8.485   6.194  -5.881 +0.01 -0.00    +1.500 V  
DOCKED: ATOM      2 V2   LIG A   1      -6.925   5.358  -8.417 +0.00 -0.00    +1.500 V  
DOCKED: ATOM      3 V3   LIG A   1      -5.426   5.796  -5.748 +0.02 -0.00    +1.500 V  
DOCKED: ATOM      4 V4   LIG A   1      -6.653   8.632  -5.349 +0.00 +0.00    +1.500 V  
DOCKED: ATOM      5 V5   LIG A   1      -8.202   8.386  -8.001 +0.00 +0.00    +1.500 V  
DOCKED: ATOM      6 O1   LIG A   1      -9.674   5.478  -5.076 +0.01 +0.00    -0.800 OA 
DOCKED: ATOM      7 O2   LIG A   1      -8.207   4.928  -7.338 +0.00 +0.00    -0.750 OA 
DOCKED: ATOM      8 O3   LIG A   1      -6.861   5.226  -5.080 +0.02 +0.00    -0.750 OA 
DOCKED: ATOM      9 O4   LIG A   1      -7.974   7.556  -4.733 +0.00 -0.00    -0.750 OA 
DOCKED: ATOM     10 O5   LIG A   1      -9.320   7.308  -7.023 +0.00 -0.00    -0.750 OA 
DOCKED: ATOM     11 O6   LIG A   1      -6.627   7.025  -6.987 +0.00 +0.00    -0.750 OA 
DOCKED: ATOM     12 O7   LIG A   1      -5.316   6.409  -9.150 +0.00 -0.00    -0.750 OA 
DOCKED: ATOM     13 O8   LIG A   1      -5.483   4.691  -7.369 +0.00 +0.00    -0.750 OA 
DOCKED: ATOM     14 O9   LIG A   1      -8.029   6.785  -9.238 +0.00 -0.00    -0.750 OA 
DOCKED: ATOM     15 O10  LIG A   1      -7.763   9.434  -6.627 +0.00 -0.00    -0.750 OA 
DOCKED: ATOM     16 O11  LIG A   1      -6.990   4.293  -9.619 +0.00 +0.00    -0.800 OA 
DOCKED: ATOM     17 O12  LIG A   1      -4.135   4.949  -5.036 +0.03 -0.00    -0.750 OA 
DOCKED: ATOM     18 O13  LIG A   1      -6.547   9.775  -4.236 +0.00 -0.00    -0.800 OA 
DOCKED: ATOM     19 O14  LIG A   1      -9.174   9.297  -8.879 +0.00 -0.00    -0.800 OA 
DOCKED: ATOM     20 V6   LIG A   1      -5.178   8.018  -8.158 +0.00 +0.00    +1.500 V  
DOCKED: ATOM     21 O15  LIG A   1      -3.744   8.588  -8.826 +0.00 -0.00    -0.750 OA 
DOCKED: ATOM     22 V7   LIG A   1      -2.118   7.619  -8.024 +0.00 -0.00    +1.500 V  
DOCKED: ATOM     23 O16  LIG A   1      -0.931   8.335  -8.830 +0.00 +0.00    -0.800 OA 
DOCKED: ATOM     24 O17  LIG A   1      -2.397   8.886  -6.567 +0.00 +0.00    -0.750 OA 
DOCKED: ATOM     25 V8   LIG A   1      -3.679   8.456  -5.488 +0.00 -0.00    +1.500 V  
DOCKED: ATOM     26 O18  LIG A   1      -3.977   6.788  -6.919 +0.00 -0.00    -0.750 OA 
DOCKED: ATOM     27 O19  LIG A   1      -2.630   6.257  -9.172 +0.00 -0.00    -0.750 OA 
DOCKED: ATOM     28 V9   LIG A   1      -3.951   5.181  -8.556 +0.00 +0.00    +1.500 V  
DOCKED: ATOM     29 V10  LIG A   1      -2.402   5.428  -5.905 +0.04 +0.00    +1.500 V  
DOCKED: ATOM     30 O20  LIG A   1      -1.285   6.505  -6.883 +0.00 +0.00    -0.750 OA 
DOCKED: ATOM     31 O21  LIG A   1      -2.575   7.028  -4.667 +0.01 +0.00    -0.750 OA 
DOCKED: ATOM     32 O22  LIG A   1      -5.288   7.405  -4.756 +0.00 -0.00    -0.750 OA 
DOCKED: ATOM     33 O23  LIG A   1      -2.842   4.380  -7.280 +0.01 -0.00    -0.750 OA 
DOCKED: ATOM     34 O24  LIG A   1      -4.057   4.039  -9.669 +0.00 -0.00    -0.800 OA 
DOCKED: ATOM     35 O25  LIG A   1      -1.431   4.516  -5.027 +0.05 -0.01    -0.800 OA 
DOCKED: ATOM     36 O26  LIG A   1      -5.121   9.122  -6.536 +0.00 -0.00    -0.750 OA 
DOCKED: ATOM     37 O27  LIG A   1      -3.614   9.520  -4.288 +0.00 +0.00    -0.800 OA 
DOCKED: ATOM     38 O28  LIG A   1      -6.468   8.864  -8.869 +0.00 -0.00    -0.750 OA 
DOCKED: ENDROOT
DOCKED: TORSDOF 0
DOCKED: TER
DOCKED: ENDMDL
________________________________________________________________________________


    CLUSTERING HISTOGRAM
    ____________________


________________________________________________________________________________
     |           |     |           |     |
Clus | Lowest    | Run | Mean      | Num | Histogram
-ter | Binding   |     | Binding   | in  |
Rank | Energy    |     | Energy    | Clus|    5    10   15   20   25   30   35
_____|___________|_____|___________|_____|____:____|____:____|____:____|____:___
   1 |     -0.24 |  12 |     -0.05 |   9 |#########
   2 |     +0.18 |  18 |     +0.25 |  11 |###########
_____|___________|_____|___________|_____|______________________________________


    RMSD TABLE
    __________


_______________________________________________________________________
     |      |      |           |         |                 |
Rank | Sub- | Run  | Binding   | Cluster | Reference       | Grep
     | Rank |      | Energy    | RMSD    | RMSD            | Pattern
_____|______|______|___________|_________|_________________|___________
   1      1     12       -0.24      0.00     11.96           RANKING
   1      2     19       -0.22      1.40     12.36           RANKING
   1      3      6       -0.15      1.36     12.19           RANKING
   1      4      9       -0.13      0.61     11.65           RANKING
   1      5      2       -0.11      0.82     11.61           RANKING
   1      6     16       +0.07      1.22     11.86           RANKING
   1      7     11       +0.07      1.37     11.72           RANKING
   1      8      8       +0.11      1.42     11.19           RANKING
   1      9     14       +0.15      1.87     11.65           RANKING
   2      1     18       +0.18      0.00      8.18           RANKING
   2      2     13       +0.19      0.85      7.94           RANKING
   2      3      7       +0.19      0.34      7.97           RANKING
   2      4     17       +0.20      0.53      8.05           RANKING
   2      5     20       +0.21      0.54      7.88           RANKING
   2      6      4       +0.23      0.76      8.21           RANKING
   2      7     10       +0.25      0.90      8.04           RANKING
   2      8      1       +0.27      1.25      7.28           RANKING
   2      9     15       +0.29      1.57      6.60           RANKING
   2     10      3       +0.29      1.35      7.91           RANKING
   2     11      5       +0.40      1.38      8.05           RANKING

Run time 0.389 sec
Idle time 0.321 sec
