ROOT
ATOM      1 V1   LIG A   1       2.120   5.955  -3.319  1.00  0.00    +1.500 Zn
ATOM      2 V2   LIG A   1       3.966   4.593  -1.245  1.00  0.00    +1.500 Zn
ATOM      3 V3   LIG A   1       0.901   4.221  -1.074  1.00  0.00    +1.500 Zn
ATOM      4 V4   LIG A   1       0.372   7.291  -1.140  1.00  0.00    +1.500 Zn
ATOM      5 V5   LIG A   1       3.397   7.856  -1.286  1.00  0.00    +1.500 Zn
ATOM      6 O1   LIG A   1       2.029   5.823  -4.915  1.00  0.00    -0.800 OA
ATOM      7 O2   LIG A   1       3.602   4.749  -2.929  1.00  0.00    -0.750 OA
ATOM      8 O3   LIG A   1       0.995   4.334  -2.749  1.00  0.00    -0.750 OA
ATOM      9 O4   LIG A   1       0.584   6.903  -2.897  1.00  0.00    -0.750 OA
ATOM     10 O5   LIG A   1       3.208   7.363  -3.043  1.00  0.00    -0.750 OA
ATOM     11 O6   LIG A   1       2.192   5.900  -1.004  1.00  0.00    -0.750 OA
ATOM     12 O7   LIG A   1       3.752   4.833   0.786  1.00  0.00    -0.750 OA
ATOM     13 O8   LIG A   1       2.623   3.315  -0.817  1.00  0.00    -0.750 OA
ATOM     14 O9   LIG A   1       4.801   6.391  -1.210  1.00  0.00    -0.750 OA
ATOM     15 O10  LIG A   1       1.760   8.548  -1.146  1.00  0.00    -0.750 OA
ATOM     16 O11  LIG A   1       5.308   3.712  -1.169  1.00  0.00    -0.800 OA
ATOM     17 O12  LIG A   1      -0.042   2.861  -0.685  1.00  0.00    -0.750 OA
ATOM     18 O13  LIG A   1      -0.924   8.226  -1.114  1.00  0.00    -0.800 OA
ATOM     19 O14  LIG A   1       4.350   9.136  -1.318  1.00  0.00    -0.800 OA
ATOM     20 V6   LIG A   1       2.444   6.174   1.074  1.00  0.00    +1.500 Zn
ATOM     21 O15  LIG A   1       2.351   6.061   2.749  1.00  0.00    -0.750 OA
ATOM     22 V7   LIG A   1       1.225   4.439   3.319  1.00  0.00    +1.500 Zn
ATOM     23 O16  LIG A   1       1.317   4.572   4.915  1.00  0.00    -0.800 OA
ATOM     24 O17  LIG A   1      -0.257   5.646   2.929  1.00  0.00    -0.750 OA
ATOM     25 V8   LIG A   1      -0.621   5.802   1.245  1.00  0.00    +1.500 Zn
ATOM     26 O18  LIG A   1       1.154   4.495   1.004  1.00  0.00    -0.750 OA
ATOM     27 O19  LIG A   1       2.761   3.492   2.897  1.00  0.00    -0.750 OA
ATOM     28 V9   LIG A   1       2.973   3.104   1.140  1.00  0.00    +1.500 Zn
ATOM     29 V10  LIG A   1      -0.052   2.539   1.286  1.00  0.00    +1.500 Zn
ATOM     30 O20  LIG A   1       0.138   3.032   3.043  1.00  0.00    -0.750 OA
ATOM     31 O21  LIG A   1      -1.456   4.004   1.210  1.00  0.00    -0.750 OA
ATOM     32 O22  LIG A   1      -0.407   5.562  -0.786  1.00  0.00    -0.750 OA
ATOM     33 O23  LIG A   1       1.586   1.847   1.146  1.00  0.00    -0.750 OA
ATOM     34 O24  LIG A   1       4.269   2.169   1.114  1.00  0.00    -0.800 OA
ATOM     35 O25  LIG A   1      -1.004   1.259   1.318  1.00  0.00    -0.800 OA
ATOM     36 O26  LIG A   1       0.722   7.080   0.817  1.00  0.00    -0.750 OA
ATOM     37 O27  LIG A   1      -1.962   6.682   1.169  1.00  0.00    -0.800 OA
ATOM     38 O28  LIG A   1       3.387   7.533   0.685  1.00  0.00    -0.750 OA
ENDROOT
TORSDOF 0