AutoDock-GPU version: v1.6|Release|x64

**********************************************************
**    AutoDock-GPU AUTODOCKTOOLS-COMPATIBLE DLG FILE    **
**********************************************************


    DOCKING PARAMETERS
    ________________________


Ligand file:                               O20V10_V.pdbqt
Grid fld file:                             Hidrogel4_CMC_HA_pH74.maps.fld

Random seed:                               1782273577, 36880
Number of runs:                            20
Number of energy evaluations:              1132076
Number of generations:                     42000
Size of population:                        150
Rate of crossover:                         80.000000%
Tournament selection probability limit:    60.000000%
Rate of mutation:                          2.000000%
Maximal allowed delta movement:            +/- 6.000000A
Maximal allowed delta angle:               +/- 90.000000

Rate of local search:                      100.000000%
Maximal number of local search iterations: 300
Rho lower bound:                           0.010000
Spread of local search delta movement:     2.000000A
Spread of local search delta angle:        74.999999
Limit of consecutive successes/failures:   4

Handle symmetry during clustering:         YES
RMSD tolerance:                            2.000000A

Program call in command line was:          D:\Programas\AutoDock-GPU.exe -M Hidrogel4_CMC_HA_pH74.maps.fld -L O20V10_V.pdbqt --nrun 20 --resnam O20V10_pH74 --derivtype V=Zn 


    GRID PARAMETERS
    ________________________


Receptor name:                             Hidrogel4_CMC_HA_pH74
Number of grid points (x, y, z):           53, 53, 53
Grid center (x, y, z):                     0.060000, 0.070000, 0.000000A
Grid size (x, y, z):                       19.500000, 19.500000, 19.500000A
Grid spacing:                              0.375000A


    LIGAND PARAMETERS
    ________________________


Ligand name:                               O20V10_V
Number of atoms:                           38
Number of rotatable bonds:                 0
Number of atom types:                      2


    DUMMY DATA (only for ADT-compatibility)
    ________________________


DPF> outlev 1
DPF> ga_run 20
DPF> fld Hidrogel4_CMC_HA_pH74.maps.fld
DPF> move O20V10_V.pdbqt


    COUNTER STATES
    ________________________


Number of energy evaluations performed:    155027
Number of generations used:                25


    INPUT LIGAND PDBQT FILE:
    ________________________


INPUT-LIGAND-PDBQT: ROOT
INPUT-LIGAND-PDBQT: ATOM      1 V1   LIG A   1       2.120   5.955  -3.319  1.00  0.00    +1.500 V
INPUT-LIGAND-PDBQT: ATOM      2 V2   LIG A   1       3.966   4.593  -1.245  1.00  0.00    +1.500 V
INPUT-LIGAND-PDBQT: ATOM      3 V3   LIG A   1       0.901   4.221  -1.074  1.00  0.00    +1.500 V
INPUT-LIGAND-PDBQT: ATOM      4 V4   LIG A   1       0.372   7.291  -1.140  1.00  0.00    +1.500 V
INPUT-LIGAND-PDBQT: ATOM      5 V5   LIG A   1       3.397   7.856  -1.286  1.00  0.00    +1.500 V
INPUT-LIGAND-PDBQT: ATOM      6 O1   LIG A   1       2.029   5.823  -4.915  1.00  0.00    -0.800 OA
INPUT-LIGAND-PDBQT: ATOM      7 O2   LIG A   1       3.602   4.749  -2.929  1.00  0.00    -0.750 OA
INPUT-LIGAND-PDBQT: ATOM      8 O3   LIG A   1       0.995   4.334  -2.749  1.00  0.00    -0.750 OA
INPUT-LIGAND-PDBQT: ATOM      9 O4   LIG A   1       0.584   6.903  -2.897  1.00  0.00    -0.750 OA
INPUT-LIGAND-PDBQT: ATOM     10 O5   LIG A   1       3.208   7.363  -3.043  1.00  0.00    -0.750 OA
INPUT-LIGAND-PDBQT: ATOM     11 O6   LIG A   1       2.192   5.900  -1.004  1.00  0.00    -0.750 OA
INPUT-LIGAND-PDBQT: ATOM     12 O7   LIG A   1       3.752   4.833   0.786  1.00  0.00    -0.750 OA
INPUT-LIGAND-PDBQT: ATOM     13 O8   LIG A   1       2.623   3.315  -0.817  1.00  0.00    -0.750 OA
INPUT-LIGAND-PDBQT: ATOM     14 O9   LIG A   1       4.801   6.391  -1.210  1.00  0.00    -0.750 OA
INPUT-LIGAND-PDBQT: ATOM     15 O10  LIG A   1       1.760   8.548  -1.146  1.00  0.00    -0.750 OA
INPUT-LIGAND-PDBQT: ATOM     16 O11  LIG A   1       5.308   3.712  -1.169  1.00  0.00    -0.800 OA
INPUT-LIGAND-PDBQT: ATOM     17 O12  LIG A   1      -0.042   2.861  -0.685  1.00  0.00    -0.750 OA
INPUT-LIGAND-PDBQT: ATOM     18 O13  LIG A   1      -0.924   8.226  -1.114  1.00  0.00    -0.800 OA
INPUT-LIGAND-PDBQT: ATOM     19 O14  LIG A   1       4.350   9.136  -1.318  1.00  0.00    -0.800 OA
INPUT-LIGAND-PDBQT: ATOM     20 V6   LIG A   1       2.444   6.174   1.074  1.00  0.00    +1.500 V
INPUT-LIGAND-PDBQT: ATOM     21 O15  LIG A   1       2.351   6.061   2.749  1.00  0.00    -0.750 OA
INPUT-LIGAND-PDBQT: ATOM     22 V7   LIG A   1       1.225   4.439   3.319  1.00  0.00    +1.500 V
INPUT-LIGAND-PDBQT: ATOM     23 O16  LIG A   1       1.317   4.572   4.915  1.00  0.00    -0.800 OA
INPUT-LIGAND-PDBQT: ATOM     24 O17  LIG A   1      -0.257   5.646   2.929  1.00  0.00    -0.750 OA
INPUT-LIGAND-PDBQT: ATOM     25 V8   LIG A   1      -0.621   5.802   1.245  1.00  0.00    +1.500 V
INPUT-LIGAND-PDBQT: ATOM     26 O18  LIG A   1       1.154   4.495   1.004  1.00  0.00    -0.750 OA
INPUT-LIGAND-PDBQT: ATOM     27 O19  LIG A   1       2.761   3.492   2.897  1.00  0.00    -0.750 OA
INPUT-LIGAND-PDBQT: ATOM     28 V9   LIG A   1       2.973   3.104   1.140  1.00  0.00    +1.500 V
INPUT-LIGAND-PDBQT: ATOM     29 V10  LIG A   1      -0.052   2.539   1.286  1.00  0.00    +1.500 V
INPUT-LIGAND-PDBQT: ATOM     30 O20  LIG A   1       0.138   3.032   3.043  1.00  0.00    -0.750 OA
INPUT-LIGAND-PDBQT: ATOM     31 O21  LIG A   1      -1.456   4.004   1.210  1.00  0.00    -0.750 OA
INPUT-LIGAND-PDBQT: ATOM     32 O22  LIG A   1      -0.407   5.562  -0.786  1.00  0.00    -0.750 OA
INPUT-LIGAND-PDBQT: ATOM     33 O23  LIG A   1       1.586   1.847   1.146  1.00  0.00    -0.750 OA
INPUT-LIGAND-PDBQT: ATOM     34 O24  LIG A   1       4.269   2.169   1.114  1.00  0.00    -0.800 OA
INPUT-LIGAND-PDBQT: ATOM     35 O25  LIG A   1      -1.004   1.259   1.318  1.00  0.00    -0.800 OA
INPUT-LIGAND-PDBQT: ATOM     36 O26  LIG A   1       0.722   7.080   0.817  1.00  0.00    -0.750 OA
INPUT-LIGAND-PDBQT: ATOM     37 O27  LIG A   1      -1.962   6.682   1.169  1.00  0.00    -0.800 OA
INPUT-LIGAND-PDBQT: ATOM     38 O28  LIG A   1       3.387   7.533   0.685  1.00  0.00    -0.750 OA
INPUT-LIGAND-PDBQT: ENDROOT
INPUT-LIGAND-PDBQT: TORSDOF 0


    FINAL DOCKED STATE:
    ________________________


Run:   1 / 20
Time taken for this run:   0.006s

DOCKED: MODEL        1
DOCKED: USER    Run = 1
DOCKED: USER
DOCKED: USER    Estimated Free Energy of Binding    =  +0.36 kcal/mol  [=(1)+(2)+(3)-(4)]
DOCKED: USER
DOCKED: USER    (1) Final Intermolecular Energy     =  +0.36 kcal/mol
DOCKED: USER        vdW + Hbond + desolv Energy     =  +0.61 kcal/mol
DOCKED: USER        Electrostatic Energy            =  -0.25 kcal/mol
DOCKED: USER        Moving Ligand-Fixed Receptor    =  +0.36 kcal/mol
DOCKED: USER        Moving Ligand-Moving Receptor   =  +0.00 kcal/mol
DOCKED: USER    (2) Final Total Internal Energy     =  +0.00 kcal/mol
DOCKED: USER    (3) Torsional Free Energy           =  +0.00 kcal/mol
DOCKED: USER    (4) Unbound System's Energy         =  +0.00 kcal/mol
DOCKED: USER
DOCKED: USER
DOCKED: USER                              x       y       z     vdW  Elec       q    Type
DOCKED: USER                           _______ _______ _______ _____ _____    ______ ____
DOCKED: ROOT
DOCKED: ATOM      1 V1   LIG A   1       5.540   8.612  -6.123 +0.00 +0.01    +1.500 V  
DOCKED: ATOM      2 V2   LIG A   1       4.753   6.888  -8.567 +0.00 +0.01    +1.500 V  
DOCKED: ATOM      3 V3   LIG A   1       5.330   5.544  -5.842 +0.09 +0.05    +1.500 V  
DOCKED: ATOM      4 V4   LIG A   1       8.094   6.954  -5.561 +0.00 +0.02    +1.500 V  
DOCKED: ATOM      5 V5   LIG A   1       7.706   8.360  -8.274 +0.00 +0.01    +1.500 V  
DOCKED: ATOM      6 O1   LIG A   1       4.770   9.792  -5.358 +0.00 -0.01    -0.800 OA 
DOCKED: ATOM      7 O2   LIG A   1       4.267   8.191  -7.539 +0.00 -0.00    -0.750 OA 
DOCKED: ATOM      8 O3   LIG A   1       4.687   6.972  -5.229 +0.02 -0.02    -0.750 OA 
DOCKED: ATOM      9 O4   LIG A   1       6.952   8.236  -4.983 +0.00 -0.01    -0.750 OA 
DOCKED: ATOM     10 O5   LIG A   1       6.581   9.456  -7.326 +0.00 -0.00    -0.750 OA 
DOCKED: ATOM     11 O6   LIG A   1       6.462   6.757  -7.161 +0.00 -0.01    -0.750 OA 
DOCKED: ATOM     12 O7   LIG A   1       5.884   5.312  -9.248 +0.00 -0.01    -0.750 OA 
DOCKED: ATOM     13 O8   LIG A   1       4.194   5.460  -7.440 +0.02 -0.01    -0.750 OA 
DOCKED: ATOM     14 O9   LIG A   1       6.095   8.035  -9.468 +0.00 -0.00    -0.750 OA 
DOCKED: ATOM     15 O10  LIG A   1       8.803   8.048  -6.905 +0.00 -0.00    -0.750 OA 
DOCKED: ATOM     16 O11  LIG A   1       3.663   6.834  -9.747 +0.00 -0.00    -0.800 OA 
DOCKED: ATOM     17 O12  LIG A   1       4.575   4.240  -5.055 +0.03 -0.07    -0.750 OA 
DOCKED: ATOM     18 O13  LIG A   1       9.262   6.968  -4.469 +0.00 -0.01    -0.800 OA 
DOCKED: ATOM     19 O14  LIG A   1       8.540   9.342  -9.216 +0.00 -0.00    -0.800 OA 
DOCKED: ATOM     20 V6   LIG A   1       7.517   5.315  -8.286 +0.00 +0.02    +1.500 V  
DOCKED: ATOM     21 O15  LIG A   1       8.159   3.888  -8.900 +0.00 -0.01    -0.750 OA 
DOCKED: ATOM     22 V7   LIG A   1       7.305   2.247  -8.005 +0.03 +0.03    +1.500 V  
DOCKED: ATOM     23 O16  LIG A   1       8.077   1.068  -8.771 +0.00 -0.01    -0.800 OA 
DOCKED: ATOM     24 O17  LIG A   1       8.580   2.668  -6.589 +0.01 -0.02    -0.750 OA 
DOCKED: ATOM     25 V8   LIG A   1       8.094   3.972  -5.561 +0.05 +0.04    +1.500 V  
DOCKED: ATOM     26 O18  LIG A   1       6.385   4.103  -6.968 +0.02 -0.02    -0.750 OA 
DOCKED: ATOM     27 O19  LIG A   1       5.894   2.624  -9.145 +0.01 -0.01    -0.750 OA 
DOCKED: ATOM     28 V9   LIG A   1       4.752   3.906  -8.567 +0.04 +0.02    +1.500 V  
DOCKED: ATOM     29 V10  LIG A   1       5.141   2.500  -5.854 +0.19 +0.14    +1.500 V  
DOCKED: ATOM     30 O20  LIG A   1       6.266   1.404  -6.803 +0.04 -0.04    -0.750 OA 
DOCKED: ATOM     31 O21  LIG A   1       6.752   2.824  -4.660 +0.03 -0.07    -0.750 OA 
DOCKED: ATOM     32 O22  LIG A   1       6.962   5.548  -4.880 +0.02 -0.02    -0.750 OA 
DOCKED: ATOM     33 O23  LIG A   1       4.043   2.812  -7.224 +0.03 -0.02    -0.750 OA 
DOCKED: ATOM     34 O24  LIG A   1       3.585   3.891  -9.659 +0.01 +0.00    -0.800 OA 
DOCKED: ATOM     35 O25  LIG A   1       4.306   1.518  -4.913 -0.06 -0.20    -0.800 OA 
DOCKED: ATOM     36 O26  LIG A   1       8.653   5.400  -6.688 +0.00 -0.01    -0.750 OA 
DOCKED: ATOM     37 O27  LIG A   1       9.182   4.025  -4.382 +0.02 -0.02    -0.800 OA 
DOCKED: ATOM     38 O28  LIG A   1       8.271   6.619  -9.073 +0.00 -0.00    -0.750 OA 
DOCKED: ENDROOT
DOCKED: TORSDOF 0
DOCKED: TER
DOCKED: ENDMDL
________________________________________________________________________________


    FINAL DOCKED STATE:
    ________________________


Run:   2 / 20
Time taken for this run:   0.006s

DOCKED: MODEL        2
DOCKED: USER    Run = 2
DOCKED: USER
DOCKED: USER    Estimated Free Energy of Binding    =  +0.37 kcal/mol  [=(1)+(2)+(3)-(4)]
DOCKED: USER
DOCKED: USER    (1) Final Intermolecular Energy     =  +0.37 kcal/mol
DOCKED: USER        vdW + Hbond + desolv Energy     =  +0.44 kcal/mol
DOCKED: USER        Electrostatic Energy            =  -0.07 kcal/mol
DOCKED: USER        Moving Ligand-Fixed Receptor    =  +0.37 kcal/mol
DOCKED: USER        Moving Ligand-Moving Receptor   =  +0.00 kcal/mol
DOCKED: USER    (2) Final Total Internal Energy     =  +0.00 kcal/mol
DOCKED: USER    (3) Torsional Free Energy           =  +0.00 kcal/mol
DOCKED: USER    (4) Unbound System's Energy         =  +0.00 kcal/mol
DOCKED: USER
DOCKED: USER
DOCKED: USER                              x       y       z     vdW  Elec       q    Type
DOCKED: USER                           _______ _______ _______ _____ _____    ______ ____
DOCKED: ROOT
DOCKED: ATOM      1 V1   LIG A   1       8.577   6.977   3.321 +0.01 +0.01    +1.500 V  
DOCKED: ATOM      2 V2   LIG A   1       8.061   8.060   6.172 +0.00 +0.01    +1.500 V  
DOCKED: ATOM      3 V3   LIG A   1       8.390   5.021   5.703 +0.00 +0.01    +1.500 V  
DOCKED: ATOM      4 V4   LIG A   1       6.217   4.977   3.469 +0.09 +0.02    +1.500 V  
DOCKED: ATOM      5 V5   LIG A   1       5.733   7.999   3.817 +0.02 +0.01    +1.500 V  
DOCKED: ATOM      6 O1   LIG A   1       9.762   7.249   2.276 +0.00 -0.00    -0.800 OA 
DOCKED: ATOM      7 O2   LIG A   1       9.111   8.132   4.799 +0.00 -0.00    -0.750 OA 
DOCKED: ATOM      8 O3   LIG A   1       9.439   5.525   4.490 +0.00 -0.00    -0.750 OA 
DOCKED: ATOM      9 O4   LIG A   1       7.683   5.540   2.565 +0.02 -0.01    -0.750 OA 
DOCKED: ATOM     10 O5   LIG A   1       7.297   8.162   2.873 +0.01 -0.01    -0.750 OA 
DOCKED: ATOM     11 O6   LIG A   1       7.041   6.489   4.986 +0.01 -0.00    -0.750 OA 
DOCKED: ATOM     12 O7   LIG A   1       6.518   7.408   7.365 +0.00 -0.00    -0.750 OA 
DOCKED: ATOM     13 O8   LIG A   1       8.781   6.482   6.954 +0.00 -0.00    -0.750 OA 
DOCKED: ATOM     14 O9   LIG A   1       6.674   9.116   5.227 +0.00 -0.00    -0.750 OA 
DOCKED: ATOM     15 O10  LIG A   1       5.223   6.495   3.007 +0.03 -0.01    -0.750 OA 
DOCKED: ATOM     16 O11  LIG A   1       8.578   9.202   7.177 +0.00 -0.00    -0.800 OA 
DOCKED: ATOM     17 O12  LIG A   1       9.174   3.824   6.621 +0.00 -0.00    -0.750 OA 
DOCKED: ATOM     18 O13  LIG A   1       5.589   3.862   2.512 +0.03 -0.03    -0.800 OA 
DOCKED: ATOM     19 O14  LIG A   1       4.764   9.109   3.202 +0.01 -0.01    -0.800 OA 
DOCKED: ATOM     20 V6   LIG A   1       5.415   6.279   6.316 +0.01 +0.01    +1.500 V  
DOCKED: ATOM     21 O15  LIG A   1       4.365   5.776   7.529 +0.00 -0.00    -0.750 OA 
DOCKED: ATOM     22 V7   LIG A   1       5.228   4.323   8.698 +0.00 +0.01    +1.500 V  
DOCKED: ATOM     23 O16  LIG A   1       4.042   4.052   9.743 +0.00 -0.00    -0.800 OA 
DOCKED: ATOM     24 O17  LIG A   1       4.693   3.168   7.219 +0.01 -0.01    -0.750 OA 
DOCKED: ATOM     25 V8   LIG A   1       5.743   3.240   5.846 +0.05 +0.02    +1.500 V  
DOCKED: ATOM     26 O18  LIG A   1       6.764   4.811   7.033 +0.00 -0.00    -0.750 OA 
DOCKED: ATOM     27 O19  LIG A   1       6.121   5.760   9.454 +0.00 -0.00    -0.750 OA 
DOCKED: ATOM     28 V9   LIG A   1       7.587   6.323   8.549 +0.00 +0.00    +1.500 V  
DOCKED: ATOM     29 V10  LIG A   1       8.071   3.301   8.202 +0.00 +0.01    +1.500 V  
DOCKED: ATOM     30 O20  LIG A   1       6.507   3.139   9.146 +0.00 -0.00    -0.750 OA 
DOCKED: ATOM     31 O21  LIG A   1       7.130   2.184   6.791 +0.00 -0.01    -0.750 OA 
DOCKED: ATOM     32 O22  LIG A   1       7.286   3.892   4.654 +0.02 -0.01    -0.750 OA 
DOCKED: ATOM     33 O23  LIG A   1       8.581   4.806   9.012 +0.00 -0.00    -0.750 OA 
DOCKED: ATOM     34 O24  LIG A   1       8.216   7.437   9.507 +0.00 -0.00    -0.800 OA 
DOCKED: ATOM     35 O25  LIG A   1       9.040   2.192   8.817 +0.00 -0.00    -0.800 OA 
DOCKED: ATOM     36 O26  LIG A   1       5.023   4.818   5.065 +0.04 -0.01    -0.750 OA 
DOCKED: ATOM     37 O27  LIG A   1       5.226   2.099   4.842 +0.07 -0.02    -0.800 OA 
DOCKED: ATOM     38 O28  LIG A   1       4.631   7.475   5.398 +0.01 -0.01    -0.750 OA 
DOCKED: ENDROOT
DOCKED: TORSDOF 0
DOCKED: TER
DOCKED: ENDMDL
________________________________________________________________________________


    FINAL DOCKED STATE:
    ________________________


Run:   3 / 20
Time taken for this run:   0.006s

DOCKED: MODEL        3
DOCKED: USER    Run = 3
DOCKED: USER
DOCKED: USER    Estimated Free Energy of Binding    =  +0.35 kcal/mol  [=(1)+(2)+(3)-(4)]
DOCKED: USER
DOCKED: USER    (1) Final Intermolecular Energy     =  +0.35 kcal/mol
DOCKED: USER        vdW + Hbond + desolv Energy     =  +0.58 kcal/mol
DOCKED: USER        Electrostatic Energy            =  -0.23 kcal/mol
DOCKED: USER        Moving Ligand-Fixed Receptor    =  +0.35 kcal/mol
DOCKED: USER        Moving Ligand-Moving Receptor   =  +0.00 kcal/mol
DOCKED: USER    (2) Final Total Internal Energy     =  +0.00 kcal/mol
DOCKED: USER    (3) Torsional Free Energy           =  +0.00 kcal/mol
DOCKED: USER    (4) Unbound System's Energy         =  +0.00 kcal/mol
DOCKED: USER
DOCKED: USER
DOCKED: USER                              x       y       z     vdW  Elec       q    Type
DOCKED: USER                           _______ _______ _______ _____ _____    ______ ____
DOCKED: ROOT
DOCKED: ATOM      1 V1   LIG A   1       3.578   4.259  -8.636 +0.04 +0.00    +1.500 V  
DOCKED: ATOM      2 V2   LIG A   1       3.596   6.530  -6.537 +0.06 +0.02    +1.500 V  
DOCKED: ATOM      3 V3   LIG A   1       5.761   6.439  -8.743 +0.00 +0.01    +1.500 V  
DOCKED: ATOM      4 V4   LIG A   1       6.526   3.491  -8.082 +0.03 +0.03    +1.500 V  
DOCKED: ATOM      5 V5   LIG A   1       4.435   3.406  -5.822 +0.19 +0.11    +1.500 V  
DOCKED: ATOM      6 O1   LIG A   1       2.481   3.816  -9.719 +0.01 +0.01    -0.800 OA 
DOCKED: ATOM      7 O2   LIG A   1       2.665   5.747  -7.767 +0.01 +0.00    -0.750 OA 
DOCKED: ATOM      8 O3   LIG A   1       4.517   5.773  -9.657 +0.00 -0.00    -0.750 OA 
DOCKED: ATOM      9 O4   LIG A   1       5.069   3.279  -9.138 +0.01 -0.01    -0.750 OA 
DOCKED: ATOM     10 O5   LIG A   1       3.237   3.227  -7.200 +0.02 +0.00    -0.750 OA 
DOCKED: ATOM     11 O6   LIG A   1       5.174   5.118  -7.193 +0.02 -0.01    -0.750 OA 
DOCKED: ATOM     12 O7   LIG A   1       5.229   6.973  -5.368 +0.02 -0.01    -0.750 OA 
DOCKED: ATOM     13 O8   LIG A   1       4.634   7.643  -7.680 +0.00 -0.01    -0.750 OA 
DOCKED: ATOM     14 O9   LIG A   1       3.313   5.014  -5.291 +0.03 -0.04    -0.750 OA 
DOCKED: ATOM     15 O10  LIG A   1       5.756   2.551  -6.658 +0.04 -0.04    -0.750 OA 
DOCKED: ATOM     16 O11  LIG A   1       2.603   7.588  -5.846 +0.02 -0.01    -0.800 OA 
DOCKED: ATOM     17 O12  LIG A   1       6.485   7.678  -9.654 +0.00 -0.00    -0.750 OA 
DOCKED: ATOM     18 O13  LIG A   1       7.569   2.426  -8.660 +0.00 -0.01    -0.800 OA 
DOCKED: ATOM     19 O14  LIG A   1       3.947   2.365  -4.715 -0.07 -0.21    -0.800 OA 
DOCKED: ATOM     20 V6   LIG A   1       6.526   5.621  -5.652 +0.07 +0.04    +1.500 V  
DOCKED: ATOM     21 O15  LIG A   1       7.769   6.287  -4.737 +0.01 -0.01    -0.750 OA 
DOCKED: ATOM     22 V7   LIG A   1       8.709   7.802  -5.759 +0.00 +0.01    +1.500 V  
DOCKED: ATOM     23 O16  LIG A   1       9.806   8.243  -4.675 +0.00 -0.01    -0.800 OA 
DOCKED: ATOM     24 O17  LIG A   1       9.622   6.312  -6.627 +0.00 -0.01    -0.750 OA 
DOCKED: ATOM     25 V8   LIG A   1       8.691   5.529  -7.858 +0.00 +0.01    +1.500 V  
DOCKED: ATOM     26 O18  LIG A   1       7.113   6.942  -7.201 +0.00 -0.01    -0.750 OA 
DOCKED: ATOM     27 O19  LIG A   1       7.218   8.780  -5.257 +0.00 -0.01    -0.750 OA 
DOCKED: ATOM     28 V9   LIG A   1       5.761   8.568  -6.313 +0.00 +0.01    +1.500 V  
DOCKED: ATOM     29 V10  LIG A   1       7.853   8.653  -8.573 +0.00 +0.01    +1.500 V  
DOCKED: ATOM     30 O20  LIG A   1       9.050   8.833  -7.194 +0.00 -0.00    -0.750 OA 
DOCKED: ATOM     31 O21  LIG A   1       8.974   7.046  -9.103 +0.00 -0.00    -0.750 OA 
DOCKED: ATOM     32 O22  LIG A   1       7.059   5.087  -9.027 +0.00 -0.01    -0.750 OA 
DOCKED: ATOM     33 O23  LIG A   1       6.530   9.509  -7.736 +0.00 -0.00    -0.750 OA 
DOCKED: ATOM     34 O24  LIG A   1       4.719   9.633  -5.735 +0.00 -0.01    -0.800 OA 
DOCKED: ATOM     35 O25  LIG A   1       8.340   9.695  -9.679 +0.00 -0.00    -0.800 OA 
DOCKED: ATOM     36 O26  LIG A   1       7.654   4.417  -6.715 +0.01 -0.02    -0.750 OA 
DOCKED: ATOM     37 O27  LIG A   1       9.684   4.473  -8.549 +0.00 -0.01    -0.800 OA 
DOCKED: ATOM     38 O28  LIG A   1       5.802   4.382  -4.741 +0.04 -0.05    -0.750 OA 
DOCKED: ENDROOT
DOCKED: TORSDOF 0
DOCKED: TER
DOCKED: ENDMDL
________________________________________________________________________________


    FINAL DOCKED STATE:
    ________________________


Run:   4 / 20
Time taken for this run:   0.006s

DOCKED: MODEL        4
DOCKED: USER    Run = 4
DOCKED: USER
DOCKED: USER    Estimated Free Energy of Binding    =  +0.32 kcal/mol  [=(1)+(2)+(3)-(4)]
DOCKED: USER
DOCKED: USER    (1) Final Intermolecular Energy     =  +0.32 kcal/mol
DOCKED: USER        vdW + Hbond + desolv Energy     =  +0.58 kcal/mol
DOCKED: USER        Electrostatic Energy            =  -0.26 kcal/mol
DOCKED: USER        Moving Ligand-Fixed Receptor    =  +0.32 kcal/mol
DOCKED: USER        Moving Ligand-Moving Receptor   =  +0.00 kcal/mol
DOCKED: USER    (2) Final Total Internal Energy     =  +0.00 kcal/mol
DOCKED: USER    (3) Torsional Free Energy           =  +0.00 kcal/mol
DOCKED: USER    (4) Unbound System's Energy         =  +0.00 kcal/mol
DOCKED: USER
DOCKED: USER
DOCKED: USER                              x       y       z     vdW  Elec       q    Type
DOCKED: USER                           _______ _______ _______ _____ _____    ______ ____
DOCKED: ROOT
DOCKED: ATOM      1 V1   LIG A   1       8.466   3.096  -7.073 +0.02 +0.03    +1.500 V  
DOCKED: ATOM      2 V2   LIG A   1       5.599   3.776  -8.012 +0.05 +0.03    +1.500 V  
DOCKED: ATOM      3 V3   LIG A   1       7.759   5.987  -7.896 +0.00 +0.01    +1.500 V  
DOCKED: ATOM      4 V4   LIG A   1       8.482   5.336  -4.935 +0.02 +0.03    +1.500 V  
DOCKED: ATOM      5 V5   LIG A   1       6.354   3.109  -4.857 +0.17 +0.14    +1.500 V  
DOCKED: ATOM      6 O1   LIG A   1       9.564   2.079  -7.650 +0.00 -0.01    -0.800 OA 
DOCKED: ATOM      7 O2   LIG A   1       6.987   2.785  -8.305 +0.01 -0.01    -0.750 OA 
DOCKED: ATOM      8 O3   LIG A   1       8.792   4.719  -8.289 +0.00 -0.01    -0.750 OA 
DOCKED: ATOM      9 O4   LIG A   1       9.433   4.089  -5.843 +0.01 -0.01    -0.750 OA 
DOCKED: ATOM     10 O5   LIG A   1       7.597   2.154  -5.809 +0.03 -0.04    -0.750 OA 
DOCKED: ATOM     11 O6   LIG A   1       6.896   4.686  -6.462 +0.02 -0.02    -0.750 OA 
DOCKED: ATOM     12 O7   LIG A   1       4.457   5.261  -7.165 +0.02 -0.01    -0.750 OA 
DOCKED: ATOM     13 O8   LIG A   1       6.213   5.335  -8.914 +0.00 -0.01    -0.750 OA 
DOCKED: ATOM     14 O9   LIG A   1       5.114   2.708  -6.414 +0.04 -0.04    -0.750 OA 
DOCKED: ATOM     15 O10  LIG A   1       7.557   4.049  -3.937 +0.03 -0.04    -0.750 OA 
DOCKED: ATOM     16 O11  LIG A   1       4.460   3.235  -9.008 +0.02 -0.01    -0.800 OA 
DOCKED: ATOM     17 O12  LIG A   1       8.089   7.286  -8.941 +0.00 -0.00    -0.750 OA 
DOCKED: ATOM     18 O13  LIG A   1       9.525   5.902  -3.865 +0.01 -0.01    -0.800 OA 
DOCKED: ATOM     19 O14  LIG A   1       5.776   2.078  -3.784 -0.03 -0.23    -0.800 OA 
DOCKED: ATOM     20 V6   LIG A   1       5.376   5.893  -5.632 +0.08 +0.04    +1.500 V  
DOCKED: ATOM     21 O15  LIG A   1       4.342   7.159  -5.240 +0.02 -0.01    -0.750 OA 
DOCKED: ATOM     22 V7   LIG A   1       4.668   8.784  -6.456 +0.00 +0.01    +1.500 V  
DOCKED: ATOM     23 O16  LIG A   1       3.569   9.800  -5.878 +0.00 -0.00    -0.800 OA 
DOCKED: ATOM     24 O17  LIG A   1       6.148   9.095  -5.223 +0.00 -0.01    -0.750 OA 
DOCKED: ATOM     25 V8   LIG A   1       7.535   8.103  -5.516 +0.00 +0.01    +1.500 V  
DOCKED: ATOM     26 O18  LIG A   1       6.237   7.193  -7.066 +0.00 -0.01    -0.750 OA 
DOCKED: ATOM     27 O19  LIG A   1       3.701   7.790  -7.685 +0.00 -0.00    -0.750 OA 
DOCKED: ATOM     28 V9   LIG A   1       4.653   6.544  -8.593 +0.00 +0.01    +1.500 V  
DOCKED: ATOM     29 V10  LIG A   1       6.781   8.770  -8.671 +0.00 +0.01    +1.500 V  
DOCKED: ATOM     30 O20  LIG A   1       5.536   9.725  -7.720 +0.00 -0.00    -0.750 OA 
DOCKED: ATOM     31 O21  LIG A   1       8.021   9.171  -7.114 +0.00 -0.00    -0.750 OA 
DOCKED: ATOM     32 O22  LIG A   1       8.678   6.618  -6.363 +0.00 -0.01    -0.750 OA 
DOCKED: ATOM     33 O23  LIG A   1       5.577   7.829  -9.592 +0.00 -0.00    -0.750 OA 
DOCKED: ATOM     34 O24  LIG A   1       3.609   5.978  -9.663 +0.00 -0.00    -0.800 OA 
DOCKED: ATOM     35 O25  LIG A   1       7.358   9.801  -9.744 +0.00 -0.00    -0.800 OA 
DOCKED: ATOM     36 O26  LIG A   1       6.922   6.544  -4.614 +0.02 -0.02    -0.750 OA 
DOCKED: ATOM     37 O27  LIG A   1       8.674   8.644  -4.521 +0.00 -0.01    -0.800 OA 
DOCKED: ATOM     38 O28  LIG A   1       5.045   4.594  -4.588 +0.03 -0.06    -0.750 OA 
DOCKED: ENDROOT
DOCKED: TORSDOF 0
DOCKED: TER
DOCKED: ENDMDL
________________________________________________________________________________


    FINAL DOCKED STATE:
    ________________________


Run:   5 / 20
Time taken for this run:   0.006s

DOCKED: MODEL        5
DOCKED: USER    Run = 5
DOCKED: USER
DOCKED: USER    Estimated Free Energy of Binding    =  +0.32 kcal/mol  [=(1)+(2)+(3)-(4)]
DOCKED: USER
DOCKED: USER    (1) Final Intermolecular Energy     =  +0.32 kcal/mol
DOCKED: USER        vdW + Hbond + desolv Energy     =  +0.36 kcal/mol
DOCKED: USER        Electrostatic Energy            =  -0.04 kcal/mol
DOCKED: USER        Moving Ligand-Fixed Receptor    =  +0.32 kcal/mol
DOCKED: USER        Moving Ligand-Moving Receptor   =  +0.00 kcal/mol
DOCKED: USER    (2) Final Total Internal Energy     =  +0.00 kcal/mol
DOCKED: USER    (3) Torsional Free Energy           =  +0.00 kcal/mol
DOCKED: USER    (4) Unbound System's Energy         =  +0.00 kcal/mol
DOCKED: USER
DOCKED: USER
DOCKED: USER                              x       y       z     vdW  Elec       q    Type
DOCKED: USER                           _______ _______ _______ _____ _____    ______ ____
DOCKED: ROOT
DOCKED: ATOM      1 V1   LIG A   1       4.466   7.262   5.324 +0.03 +0.01    +1.500 V  
DOCKED: ATOM      2 V2   LIG A   1       7.471   6.632   4.948 +0.01 +0.01    +1.500 V  
DOCKED: ATOM      3 V3   LIG A   1       5.483   4.363   5.630 +0.05 +0.02    +1.500 V  
DOCKED: ATOM      4 V4   LIG A   1       4.350   5.891   8.098 +0.00 +0.01    +1.500 V  
DOCKED: ATOM      5 V5   LIG A   1       6.280   8.238   7.590 +0.00 +0.01    +1.500 V  
DOCKED: ATOM      6 O1   LIG A   1       3.377   7.893   4.330 +0.03 -0.01    -0.800 OA 
DOCKED: ATOM      7 O2   LIG A   1       6.061   7.303   4.202 +0.01 -0.01    -0.750 OA 
DOCKED: ATOM      8 O3   LIG A   1       4.417   5.297   4.727 +0.04 -0.01    -0.750 OA 
DOCKED: ATOM      9 O4   LIG A   1       3.429   6.641   6.729 +0.02 -0.01    -0.750 OA 
DOCKED: ATOM     10 O5   LIG A   1       5.098   8.668   6.254 +0.00 -0.00    -0.750 OA 
DOCKED: ATOM     11 O6   LIG A   1       6.061   6.160   6.593 +0.00 -0.00    -0.750 OA 
DOCKED: ATOM     12 O7   LIG A   1       8.605   5.660   6.362 +0.00 -0.00    -0.750 OA 
DOCKED: ATOM     13 O8   LIG A   1       7.092   4.801   4.595 +0.01 -0.01    -0.750 OA 
DOCKED: ATOM     14 O9   LIG A   1       7.672   8.225   6.111 +0.00 -0.00    -0.750 OA 
DOCKED: ATOM     15 O10  LIG A   1       5.044   7.535   8.665 +0.00 -0.00    -0.750 OA 
DOCKED: ATOM     16 O11  LIG A   1       8.683   6.928   3.936 +0.00 -0.00    -0.800 OA 
DOCKED: ATOM     17 O12  LIG A   1       5.383   2.758   5.078 +0.05 -0.01    -0.750 OA 
DOCKED: ATOM     18 O13  LIG A   1       3.225   5.607   9.198 +0.00 -0.00    -0.800 OA 
DOCKED: ATOM     19 O14  LIG A   1       6.642   9.629   8.283 +0.00 -0.00    -0.800 OA 
DOCKED: ATOM     20 V6   LIG A   1       7.551   5.485   7.927 +0.00 +0.01    +1.500 V  
DOCKED: ATOM     21 O15  LIG A   1       8.618   4.551   8.830 +0.00 -0.00    -0.750 OA 
DOCKED: ATOM     22 V7   LIG A   1       8.568   2.585   8.233 +0.00 +0.00    +1.500 V  
DOCKED: ATOM     23 O16  LIG A   1       9.658   1.955   9.227 +0.00 -0.00    -0.800 OA 
DOCKED: ATOM     24 O17  LIG A   1       6.973   2.545   9.355 +0.00 -0.00    -0.750 OA 
DOCKED: ATOM     25 V8   LIG A   1       5.564   3.216   8.609 +0.00 +0.01    +1.500 V  
DOCKED: ATOM     26 O18  LIG A   1       6.974   3.688   6.964 +0.00 -0.00    -0.750 OA 
DOCKED: ATOM     27 O19  LIG A   1       9.605   3.207   6.828 +0.00 -0.00    -0.750 OA 
DOCKED: ATOM     28 V9   LIG A   1       8.685   3.956   5.460 +0.01 +0.01    +1.500 V  
DOCKED: ATOM     29 V10  LIG A   1       6.754   1.610   5.968 +0.03 +0.01    +1.500 V  
DOCKED: ATOM     30 O20  LIG A   1       7.937   1.180   7.303 +0.00 -0.00    -0.750 OA 
DOCKED: ATOM     31 O21  LIG A   1       5.362   1.623   7.446 +0.00 -0.01    -0.750 OA 
DOCKED: ATOM     32 O22  LIG A   1       4.429   4.188   7.196 +0.01 -0.01    -0.750 OA 
DOCKED: ATOM     33 O23  LIG A   1       7.991   2.313   4.892 +0.01 -0.00    -0.750 OA 
DOCKED: ATOM     34 O24  LIG A   1       9.809   4.240   4.360 +0.00 -0.00    -0.800 OA 
DOCKED: ATOM     35 O25  LIG A   1       6.393   0.219   5.274 +0.04 -0.01    -0.800 OA 
DOCKED: ATOM     36 O26  LIG A   1       5.942   5.047   8.963 +0.00 -0.00    -0.750 OA 
DOCKED: ATOM     37 O27  LIG A   1       4.353   2.920   9.621 +0.00 -0.00    -0.800 OA 
DOCKED: ATOM     38 O28  LIG A   1       7.651   7.089   8.479 +0.00 -0.00    -0.750 OA 
DOCKED: ENDROOT
DOCKED: TORSDOF 0
DOCKED: TER
DOCKED: ENDMDL
________________________________________________________________________________


    FINAL DOCKED STATE:
    ________________________


Run:   6 / 20
Time taken for this run:   0.006s

DOCKED: MODEL        6
DOCKED: USER    Run = 6
DOCKED: USER
DOCKED: USER    Estimated Free Energy of Binding    =  +0.32 kcal/mol  [=(1)+(2)+(3)-(4)]
DOCKED: USER
DOCKED: USER    (1) Final Intermolecular Energy     =  +0.32 kcal/mol
DOCKED: USER        vdW + Hbond + desolv Energy     =  +0.37 kcal/mol
DOCKED: USER        Electrostatic Energy            =  -0.05 kcal/mol
DOCKED: USER        Moving Ligand-Fixed Receptor    =  +0.32 kcal/mol
DOCKED: USER        Moving Ligand-Moving Receptor   =  +0.00 kcal/mol
DOCKED: USER    (2) Final Total Internal Energy     =  +0.00 kcal/mol
DOCKED: USER    (3) Torsional Free Energy           =  +0.00 kcal/mol
DOCKED: USER    (4) Unbound System's Energy         =  +0.00 kcal/mol
DOCKED: USER
DOCKED: USER
DOCKED: USER                              x       y       z     vdW  Elec       q    Type
DOCKED: USER                           _______ _______ _______ _____ _____    ______ ____
DOCKED: ROOT
DOCKED: ATOM      1 V1   LIG A   1       4.856   7.876   3.681 +0.04 +0.02    +1.500 V  
DOCKED: ATOM      2 V2   LIG A   1       6.902   5.562   3.532 +0.05 +0.01    +1.500 V  
DOCKED: ATOM      3 V3   LIG A   1       4.944   5.750   5.918 +0.03 +0.01    +1.500 V  
DOCKED: ATOM      4 V4   LIG A   1       5.738   8.700   6.533 +0.00 +0.01    +1.500 V  
DOCKED: ATOM      5 V5   LIG A   1       7.761   8.688   4.210 +0.00 +0.01    +1.500 V  
DOCKED: ATOM      6 O1   LIG A   1       3.669   8.316   2.696 +0.03 -0.02    -0.800 OA 
DOCKED: ATOM      7 O2   LIG A   1       5.593   6.349   2.719 +0.03 -0.01    -0.750 OA 
DOCKED: ATOM      8 O3   LIG A   1       3.914   6.407   4.763 +0.04 -0.01    -0.750 OA 
DOCKED: ATOM      9 O4   LIG A   1       4.536   8.900   5.193 +0.01 -0.01    -0.750 OA 
DOCKED: ATOM     10 O5   LIG A   1       6.266   8.869   3.162 +0.01 -0.01    -0.750 OA 
DOCKED: ATOM     11 O6   LIG A   1       6.446   7.024   5.135 +0.01 -0.00    -0.750 OA 
DOCKED: ATOM     12 O7   LIG A   1       8.232   5.132   5.040 +0.00 -0.00    -0.750 OA 
DOCKED: ATOM     13 O8   LIG A   1       5.857   4.498   4.714 +0.03 -0.01    -0.750 OA 
DOCKED: ATOM     14 O9   LIG A   1       8.138   7.044   3.079 +0.01 -0.00    -0.750 OA 
DOCKED: ATOM     15 O10  LIG A   1       7.089   9.592   5.591 +0.00 -0.00    -0.750 OA 
DOCKED: ATOM     16 O11  LIG A   1       7.463   4.467   2.497 +0.03 -0.01    -0.800 OA 
DOCKED: ATOM     17 O12  LIG A   1       4.094   4.547   6.767 +0.02 -0.01    -0.750 OA 
DOCKED: ATOM     18 O13  LIG A   1       5.296   9.800   7.604 +0.00 -0.00    -0.800 OA 
DOCKED: ATOM     19 O14  LIG A   1       8.829   9.694   3.580 +0.00 -0.00    -0.800 OA 
DOCKED: ATOM     20 V6   LIG A   1       8.115   6.520   6.326 +0.00 +0.01    +1.500 V  
DOCKED: ATOM     21 O15  LIG A   1       9.146   5.863   7.481 +0.00 -0.00    -0.750 OA 
DOCKED: ATOM     22 V7   LIG A   1       8.202   4.392   8.563 +0.00 +0.00    +1.500 V  
DOCKED: ATOM     23 O16  LIG A   1       9.390   3.954   9.547 +0.00 -0.00    -0.800 OA 
DOCKED: ATOM     24 O17  LIG A   1       7.466   5.921   9.525 +0.00 -0.00    -0.750 OA 
DOCKED: ATOM     25 V8   LIG A   1       6.157   6.708   8.712 +0.00 +0.00    +1.500 V  
DOCKED: ATOM     26 O18  LIG A   1       6.614   5.246   7.109 +0.00 -0.00    -0.750 OA 
DOCKED: ATOM     27 O19  LIG A   1       8.523   3.369   7.051 +0.00 -0.00    -0.750 OA 
DOCKED: ATOM     28 V9   LIG A   1       7.321   3.570   5.711 +0.02 +0.01    +1.500 V  
DOCKED: ATOM     29 V10  LIG A   1       5.298   3.581   8.035 +0.00 +0.01    +1.500 V  
DOCKED: ATOM     30 O20  LIG A   1       6.794   3.400   9.081 +0.00 -0.00    -0.750 OA 
DOCKED: ATOM     31 O21  LIG A   1       4.921   5.225   9.165 +0.00 -0.00    -0.750 OA 
DOCKED: ATOM     32 O22  LIG A   1       4.827   7.138   7.204 +0.00 -0.00    -0.750 OA 
DOCKED: ATOM     33 O23  LIG A   1       5.971   2.677   6.652 +0.01 -0.01    -0.750 OA 
DOCKED: ATOM     34 O24  LIG A   1       7.763   2.469   4.640 +0.02 -0.01    -0.800 OA 
DOCKED: ATOM     35 O25  LIG A   1       4.231   2.575   8.663 +0.00 -0.00    -0.800 OA 
DOCKED: ATOM     36 O26  LIG A   1       7.202   7.772   7.530 +0.00 -0.00    -0.750 OA 
DOCKED: ATOM     37 O27  LIG A   1       5.597   7.801   9.746 +0.00 -0.00    -0.800 OA 
DOCKED: ATOM     38 O28  LIG A   1       8.965   7.722   5.477 +0.00 -0.00    -0.750 OA 
DOCKED: ENDROOT
DOCKED: TORSDOF 0
DOCKED: TER
DOCKED: ENDMDL
________________________________________________________________________________


    FINAL DOCKED STATE:
    ________________________


Run:   7 / 20
Time taken for this run:   0.006s

DOCKED: MODEL        7
DOCKED: USER    Run = 7
DOCKED: USER
DOCKED: USER    Estimated Free Energy of Binding    =  +0.28 kcal/mol  [=(1)+(2)+(3)-(4)]
DOCKED: USER
DOCKED: USER    (1) Final Intermolecular Energy     =  +0.28 kcal/mol
DOCKED: USER        vdW + Hbond + desolv Energy     =  +0.33 kcal/mol
DOCKED: USER        Electrostatic Energy            =  -0.05 kcal/mol
DOCKED: USER        Moving Ligand-Fixed Receptor    =  +0.28 kcal/mol
DOCKED: USER        Moving Ligand-Moving Receptor   =  +0.00 kcal/mol
DOCKED: USER    (2) Final Total Internal Energy     =  +0.00 kcal/mol
DOCKED: USER    (3) Torsional Free Energy           =  +0.00 kcal/mol
DOCKED: USER    (4) Unbound System's Energy         =  +0.00 kcal/mol
DOCKED: USER
DOCKED: USER
DOCKED: USER                              x       y       z     vdW  Elec       q    Type
DOCKED: USER                           _______ _______ _______ _____ _____    ______ ____
DOCKED: ROOT
DOCKED: ATOM      1 V1   LIG A   1       5.378   8.543   8.194 +0.00 +0.00    +1.500 V  
DOCKED: ATOM      2 V2   LIG A   1       4.625   6.665   5.855 +0.03 +0.01    +1.500 V  
DOCKED: ATOM      3 V3   LIG A   1       5.565   5.482   8.553 +0.00 +0.01    +1.500 V  
DOCKED: ATOM      4 V4   LIG A   1       8.151   7.221   8.588 +0.00 +0.00    +1.500 V  
DOCKED: ATOM      5 V5   LIG A   1       7.390   8.490   5.885 +0.00 +0.01    +1.500 V  
DOCKED: ATOM      6 O1   LIG A   1       4.530   9.645   8.993 +0.00 -0.00    -0.800 OA 
DOCKED: ATOM      7 O2   LIG A   1       4.062   7.931   6.891 +0.00 -0.00    -0.750 OA 
DOCKED: ATOM      8 O3   LIG A   1       4.802   6.840   9.186 +0.00 -0.00    -0.750 OA 
DOCKED: ATOM      9 O4   LIG A   1       6.908   8.374   9.227 +0.00 -0.00    -0.750 OA 
DOCKED: ATOM     10 O5   LIG A   1       6.214   9.471   6.896 +0.00 -0.00    -0.750 OA 
DOCKED: ATOM     11 O6   LIG A   1       6.438   6.782   7.125 +0.00 -0.00    -0.750 OA 
DOCKED: ATOM     12 O7   LIG A   1       5.886   5.217   5.119 +0.02 -0.01    -0.750 OA 
DOCKED: ATOM     13 O8   LIG A   1       4.331   5.215   7.051 +0.01 -0.01    -0.750 OA 
DOCKED: ATOM     14 O9   LIG A   1       5.746   7.939   4.828 +0.01 -0.01    -0.750 OA 
DOCKED: ATOM     15 O10  LIG A   1       8.618   8.353   7.170 +0.00 -0.00    -0.750 OA 
DOCKED: ATOM     16 O11  LIG A   1       3.464   6.446   4.765 +0.05 -0.01    -0.800 OA 
DOCKED: ATOM     17 O12  LIG A   1       5.037   4.121   9.424 +0.00 -0.00    -0.750 OA 
DOCKED: ATOM     18 O13  LIG A   1       9.387   7.408   9.584 +0.00 -0.00    -0.800 OA 
DOCKED: ATOM     19 O14  LIG A   1       8.025   9.536   4.861 +0.00 -0.00    -0.800 OA 
DOCKED: ATOM     20 V6   LIG A   1       7.574   5.445   5.950 +0.00 +0.01    +1.500 V  
DOCKED: ATOM     21 O15  LIG A   1       8.337   4.088   5.317 +0.00 -0.00    -0.750 OA 
DOCKED: ATOM     22 V7   LIG A   1       7.760   2.384   6.310 +0.01 +0.01    +1.500 V  
DOCKED: ATOM     23 O16  LIG A   1       8.609   1.283   5.510 +0.01 -0.00    -0.800 OA 
DOCKED: ATOM     24 O17  LIG A   1       9.077   2.996   7.612 +0.00 -0.00    -0.750 OA 
DOCKED: ATOM     25 V8   LIG A   1       8.514   4.262   8.648 +0.00 +0.00    +1.500 V  
DOCKED: ATOM     26 O18  LIG A   1       6.701   4.146   7.378 +0.00 -0.00    -0.750 OA 
DOCKED: ATOM     27 O19  LIG A   1       6.232   2.554   5.276 +0.03 -0.01    -0.750 OA 
DOCKED: ATOM     28 V9   LIG A   1       4.989   3.706   5.916 +0.08 +0.02    +1.500 V  
DOCKED: ATOM     29 V10  LIG A   1       5.750   2.438   8.618 +0.00 +0.01    +1.500 V  
DOCKED: ATOM     30 O20  LIG A   1       6.924   1.457   7.606 +0.00 -0.00    -0.750 OA 
DOCKED: ATOM     31 O21  LIG A   1       7.394   2.989   9.675 +0.00 -0.00    -0.750 OA 
DOCKED: ATOM     32 O22  LIG A   1       7.253   5.711   9.384 +0.00 -0.00    -0.750 OA 
DOCKED: ATOM     33 O23  LIG A   1       4.521   2.575   7.332 +0.01 -0.01    -0.750 OA 
DOCKED: ATOM     34 O24  LIG A   1       3.753   3.519   4.919 +0.08 -0.02    -0.800 OA 
DOCKED: ATOM     35 O25  LIG A   1       5.114   1.391   9.641 +0.00 -0.00    -0.800 OA 
DOCKED: ATOM     36 O26  LIG A   1       8.809   5.713   7.453 +0.00 -0.00    -0.750 OA 
DOCKED: ATOM     37 O27  LIG A   1       9.674   4.481   9.737 +0.00 -0.00    -0.800 OA 
DOCKED: ATOM     38 O28  LIG A   1       8.101   6.806   5.080 +0.00 -0.00    -0.750 OA 
DOCKED: ENDROOT
DOCKED: TORSDOF 0
DOCKED: TER
DOCKED: ENDMDL
________________________________________________________________________________


    FINAL DOCKED STATE:
    ________________________


Run:   8 / 20
Time taken for this run:   0.006s

DOCKED: MODEL        8
DOCKED: USER    Run = 8
DOCKED: USER
DOCKED: USER    Estimated Free Energy of Binding    =  +0.35 kcal/mol  [=(1)+(2)+(3)-(4)]
DOCKED: USER
DOCKED: USER    (1) Final Intermolecular Energy     =  +0.35 kcal/mol
DOCKED: USER        vdW + Hbond + desolv Energy     =  +0.40 kcal/mol
DOCKED: USER        Electrostatic Energy            =  -0.04 kcal/mol
DOCKED: USER        Moving Ligand-Fixed Receptor    =  +0.35 kcal/mol
DOCKED: USER        Moving Ligand-Moving Receptor   =  +0.00 kcal/mol
DOCKED: USER    (2) Final Total Internal Energy     =  +0.00 kcal/mol
DOCKED: USER    (3) Torsional Free Energy           =  +0.00 kcal/mol
DOCKED: USER    (4) Unbound System's Energy         =  +0.00 kcal/mol
DOCKED: USER
DOCKED: USER
DOCKED: USER                              x       y       z     vdW  Elec       q    Type
DOCKED: USER                           _______ _______ _______ _____ _____    ______ ____
DOCKED: ROOT
DOCKED: ATOM      1 V1   LIG A   1       8.360   1.315   7.274 +0.00 +0.01    +1.500 V  
DOCKED: ATOM      2 V2   LIG A   1       8.764   3.539   5.164 +0.01 +0.01    +1.500 V  
DOCKED: ATOM      3 V3   LIG A   1       8.008   4.277   8.070 +0.00 +0.01    +1.500 V  
DOCKED: ATOM      4 V4   LIG A   1       5.557   2.353   8.082 +0.00 +0.01    +1.500 V  
DOCKED: ATOM      5 V5   LIG A   1       6.139   1.518   5.175 +0.10 +0.02    +1.500 V  
DOCKED: ATOM      6 O1   LIG A   1       9.351   0.186   7.838 +0.00 -0.00    -0.800 OA 
DOCKED: ATOM      7 O2   LIG A   1       9.503   2.195   5.963 +0.00 -0.00    -0.750 OA 
DOCKED: ATOM      8 O3   LIG A   1       8.915   2.911   8.441 +0.00 -0.00    -0.750 OA 
DOCKED: ATOM      9 O4   LIG A   1       6.927   1.226   8.448 +0.00 -0.00    -0.750 OA 
DOCKED: ATOM     10 O5   LIG A   1       7.467   0.506   5.936 +0.01 -0.00    -0.750 OA 
DOCKED: ATOM     11 O6   LIG A   1       7.090   3.114   6.555 +0.00 -0.01    -0.750 OA 
DOCKED: ATOM     12 O7   LIG A   1       7.347   4.970   4.747 +0.01 -0.01    -0.750 OA 
DOCKED: ATOM     13 O8   LIG A   1       9.074   4.837   6.521 +0.00 -0.00    -0.750 OA 
DOCKED: ATOM     14 O9   LIG A   1       7.636   2.330   4.069 +0.03 -0.00    -0.750 OA 
DOCKED: ATOM     15 O10  LIG A   1       5.033   1.387   6.567 +0.03 -0.01    -0.750 OA 
DOCKED: ATOM     16 O11  LIG A   1       9.799   3.990   4.021 +0.00 -0.00    -0.800 OA 
DOCKED: ATOM     17 O12  LIG A   1       8.526   5.548   9.074 +0.00 -0.00    -0.750 OA 
DOCKED: ATOM     18 O13  LIG A   1       4.436   1.941   9.144 +0.00 -0.00    -0.800 OA 
DOCKED: ATOM     19 O14  LIG A   1       5.480   0.570   4.073 +0.08 -0.02    -0.800 OA 
DOCKED: ATOM     20 V6   LIG A   1       5.764   4.503   5.678 +0.03 +0.01    +1.500 V  
DOCKED: ATOM     21 O15  LIG A   1       4.856   5.869   5.307 +0.02 -0.01    -0.750 OA 
DOCKED: ATOM     22 V7   LIG A   1       5.412   7.466   6.475 +0.00 +0.01    +1.500 V  
DOCKED: ATOM     23 O16  LIG A   1       4.421   8.594   5.910 +0.00 -0.01    -0.800 OA 
DOCKED: ATOM     24 O17  LIG A   1       4.268   6.585   7.786 +0.00 -0.00    -0.750 OA 
DOCKED: ATOM     25 V8   LIG A   1       5.008   5.241   8.585 +0.00 +0.01    +1.500 V  
DOCKED: ATOM     26 O18  LIG A   1       6.681   5.666   7.193 +0.00 -0.00    -0.750 OA 
DOCKED: ATOM     27 O19  LIG A   1       6.844   7.554   5.301 +0.00 -0.00    -0.750 OA 
DOCKED: ATOM     28 V9   LIG A   1       8.215   6.427   5.666 +0.00 +0.01    +1.500 V  
DOCKED: ATOM     29 V10  LIG A   1       7.632   7.262   8.574 +0.00 +0.00    +1.500 V  
DOCKED: ATOM     30 O20  LIG A   1       6.305   8.274   7.812 +0.00 -0.00    -0.750 OA 
DOCKED: ATOM     31 O21  LIG A   1       6.135   6.450   9.679 +0.00 -0.00    -0.750 OA 
DOCKED: ATOM     32 O22  LIG A   1       6.425   3.810   9.002 +0.00 -0.00    -0.750 OA 
DOCKED: ATOM     33 O23  LIG A   1       8.739   7.393   7.181 +0.00 -0.00    -0.750 OA 
DOCKED: ATOM     34 O24  LIG A   1       9.336   6.839   4.604 +0.00 -0.00    -0.800 OA 
DOCKED: ATOM     35 O25  LIG A   1       8.292   8.210   9.674 +0.00 -0.00    -0.800 OA 
DOCKED: ATOM     36 O26  LIG A   1       4.697   3.943   7.228 +0.01 -0.01    -0.750 OA 
DOCKED: ATOM     37 O27  LIG A   1       3.974   4.790   9.727 +0.00 -0.00    -0.800 OA 
DOCKED: ATOM     38 O28  LIG A   1       5.246   3.233   4.675 +0.05 -0.01    -0.750 OA 
DOCKED: ENDROOT
DOCKED: TORSDOF 0
DOCKED: TER
DOCKED: ENDMDL
________________________________________________________________________________


    FINAL DOCKED STATE:
    ________________________


Run:   9 / 20
Time taken for this run:   0.006s

DOCKED: MODEL        9
DOCKED: USER    Run = 9
DOCKED: USER
DOCKED: USER    Estimated Free Energy of Binding    =  +0.31 kcal/mol  [=(1)+(2)+(3)-(4)]
DOCKED: USER
DOCKED: USER    (1) Final Intermolecular Energy     =  +0.31 kcal/mol
DOCKED: USER        vdW + Hbond + desolv Energy     =  +0.36 kcal/mol
DOCKED: USER        Electrostatic Energy            =  -0.05 kcal/mol
DOCKED: USER        Moving Ligand-Fixed Receptor    =  +0.31 kcal/mol
DOCKED: USER        Moving Ligand-Moving Receptor   =  +0.00 kcal/mol
DOCKED: USER    (2) Final Total Internal Energy     =  +0.00 kcal/mol
DOCKED: USER    (3) Torsional Free Energy           =  +0.00 kcal/mol
DOCKED: USER    (4) Unbound System's Energy         =  +0.00 kcal/mol
DOCKED: USER
DOCKED: USER
DOCKED: USER                              x       y       z     vdW  Elec       q    Type
DOCKED: USER                           _______ _______ _______ _____ _____    ______ ____
DOCKED: ROOT
DOCKED: ATOM      1 V1   LIG A   1       6.346   8.617   5.437 +0.00 +0.01    +1.500 V  
DOCKED: ATOM      2 V2   LIG A   1       7.622   7.760   8.121 +0.00 +0.00    +1.500 V  
DOCKED: ATOM      3 V3   LIG A   1       7.443   5.751   5.777 +0.00 +0.01    +1.500 V  
DOCKED: ATOM      4 V4   LIG A   1       4.385   6.220   5.408 +0.06 +0.02    +1.500 V  
DOCKED: ATOM      5 V5   LIG A   1       4.365   8.232   7.741 +0.00 +0.01    +1.500 V  
DOCKED: ATOM      6 O1   LIG A   1       6.732   9.772   4.394 +0.00 -0.00    -0.800 OA 
DOCKED: ATOM      7 O2   LIG A   1       7.698   8.893   6.816 +0.00 -0.00    -0.750 OA 
DOCKED: ATOM      8 O3   LIG A   1       7.635   7.134   4.840 +0.00 -0.00    -0.750 OA 
DOCKED: ATOM      9 O4   LIG A   1       5.098   7.617   4.500 +0.01 -0.01    -0.750 OA 
DOCKED: ATOM     10 O5   LIG A   1       5.113   9.370   6.511 +0.00 -0.00    -0.750 OA 
DOCKED: ATOM     11 O6   LIG A   1       6.016   6.847   6.896 +0.00 -0.00    -0.750 OA 
DOCKED: ATOM     12 O7   LIG A   1       7.006   6.114   9.189 +0.00 -0.00    -0.750 OA 
DOCKED: ATOM     13 O8   LIG A   1       8.566   6.341   7.275 +0.00 -0.00    -0.750 OA 
DOCKED: ATOM     14 O9   LIG A   1       6.009   8.646   8.859 +0.00 -0.00    -0.750 OA 
DOCKED: ATOM     15 O10  LIG A   1       3.397   7.332   6.545 +0.01 -0.01    -0.750 OA 
DOCKED: ATOM     16 O11  LIG A   1       8.688   8.275   9.208 +0.00 -0.00    -0.800 OA 
DOCKED: ATOM     17 O12  LIG A   1       8.541   4.576   5.223 +0.00 -0.00    -0.750 OA 
DOCKED: ATOM     18 O13  LIG A   1       3.257   5.665   4.422 +0.05 -0.01    -0.800 OA 
DOCKED: ATOM     19 O14  LIG A   1       3.287   9.116   8.517 +0.00 -0.00    -0.800 OA 
DOCKED: ATOM     20 V6   LIG A   1       5.437   5.445   8.364 +0.00 +0.01    +1.500 V  
DOCKED: ATOM     21 O15  LIG A   1       5.245   4.063   9.301 +0.00 -0.00    -0.750 OA 
DOCKED: ATOM     22 V7   LIG A   1       6.535   2.579   8.704 +0.00 +0.01    +1.500 V  
DOCKED: ATOM     23 O16  LIG A   1       6.149   1.424   9.748 +0.00 -0.00    -0.800 OA 
DOCKED: ATOM     24 O17  LIG A   1       5.183   2.303   7.325 +0.01 -0.01    -0.750 OA 
DOCKED: ATOM     25 V8   LIG A   1       5.258   3.436   6.020 +0.06 +0.02    +1.500 V  
DOCKED: ATOM     26 O18  LIG A   1       6.864   4.349   7.246 +0.00 -0.00    -0.750 OA 
DOCKED: ATOM     27 O19  LIG A   1       7.783   3.578   9.641 +0.00 -0.00    -0.750 OA 
DOCKED: ATOM     28 V9   LIG A   1       8.495   4.975   8.733 +0.00 +0.00    +1.500 V  
DOCKED: ATOM     29 V10  LIG A   1       8.515   2.963   6.400 +0.00 +0.01    +1.500 V  
DOCKED: ATOM     30 O20  LIG A   1       7.767   1.826   7.630 +0.00 -0.00    -0.750 OA 
DOCKED: ATOM     31 O21  LIG A   1       6.871   2.550   5.281 +0.02 -0.01    -0.750 OA 
DOCKED: ATOM     32 O22  LIG A   1       5.874   5.081   4.952 +0.02 -0.01    -0.750 OA 
DOCKED: ATOM     33 O23  LIG A   1       9.484   3.864   7.597 +0.00 -0.00    -0.750 OA 
DOCKED: ATOM     34 O24  LIG A   1       9.623   5.530   9.719 +0.00 -0.00    -0.800 OA 
DOCKED: ATOM     35 O25  LIG A   1       9.594   2.080   5.625 +0.00 -0.00    -0.800 OA 
DOCKED: ATOM     36 O26  LIG A   1       4.314   4.854   6.866 +0.02 -0.01    -0.750 OA 
DOCKED: ATOM     37 O27  LIG A   1       4.193   2.921   4.934 +0.08 -0.02    -0.800 OA 
DOCKED: ATOM     38 O28  LIG A   1       4.341   6.619   8.918 +0.00 -0.00    -0.750 OA 
DOCKED: ENDROOT
DOCKED: TORSDOF 0
DOCKED: TER
DOCKED: ENDMDL
________________________________________________________________________________


    FINAL DOCKED STATE:
    ________________________


Run:   10 / 20
Time taken for this run:   0.006s

DOCKED: MODEL        10
DOCKED: USER    Run = 10
DOCKED: USER
DOCKED: USER    Estimated Free Energy of Binding    =  +0.26 kcal/mol  [=(1)+(2)+(3)-(4)]
DOCKED: USER
DOCKED: USER    (1) Final Intermolecular Energy     =  +0.26 kcal/mol
DOCKED: USER        vdW + Hbond + desolv Energy     =  +0.30 kcal/mol
DOCKED: USER        Electrostatic Energy            =  -0.04 kcal/mol
DOCKED: USER        Moving Ligand-Fixed Receptor    =  +0.26 kcal/mol
DOCKED: USER        Moving Ligand-Moving Receptor   =  +0.00 kcal/mol
DOCKED: USER    (2) Final Total Internal Energy     =  +0.00 kcal/mol
DOCKED: USER    (3) Torsional Free Energy           =  +0.00 kcal/mol
DOCKED: USER    (4) Unbound System's Energy         =  +0.00 kcal/mol
DOCKED: USER
DOCKED: USER
DOCKED: USER                              x       y       z     vdW  Elec       q    Type
DOCKED: USER                           _______ _______ _______ _____ _____    ______ ____
DOCKED: ROOT
DOCKED: ATOM      1 V1   LIG A   1       8.709   4.054   8.470 +0.00 +0.00    +1.500 V  
DOCKED: ATOM      2 V2   LIG A   1       8.763   6.176   6.221 +0.00 +0.01    +1.500 V  
DOCKED: ATOM      3 V3   LIG A   1       6.639   6.344   8.462 +0.00 +0.01    +1.500 V  
DOCKED: ATOM      4 V4   LIG A   1       5.716   3.401   8.017 +0.00 +0.01    +1.500 V  
DOCKED: ATOM      5 V5   LIG A   1       7.757   3.057   5.735 +0.01 +0.01    +1.500 V  
DOCKED: ATOM      6 O1   LIG A   1       9.804   3.631   9.564 +0.00 -0.00    -0.800 OA 
DOCKED: ATOM      7 O2   LIG A   1       9.678   5.432   7.487 +0.00 -0.00    -0.750 OA 
DOCKED: ATOM      8 O3   LIG A   1       7.866   5.679   9.400 +0.00 -0.00    -0.750 OA 
DOCKED: ATOM      9 O4   LIG A   1       7.181   3.188   9.062 +0.00 -0.00    -0.750 OA 
DOCKED: ATOM     10 O5   LIG A   1       8.971   2.911   7.103 +0.00 -0.00    -0.750 OA 
DOCKED: ATOM     11 O6   LIG A   1       7.130   4.894   6.997 +0.00 -0.00    -0.750 OA 
DOCKED: ATOM     12 O7   LIG A   1       7.133   6.621   5.050 +0.00 -0.00    -0.750 OA 
DOCKED: ATOM     13 O8   LIG A   1       7.804   7.415   7.300 +0.00 -0.00    -0.750 OA 
DOCKED: ATOM     14 O9   LIG A   1       8.946   4.566   5.078 +0.00 -0.00    -0.750 OA 
DOCKED: ATOM     15 O10  LIG A   1       6.411   2.328   6.649 +0.01 -0.01    -0.750 OA 
DOCKED: ATOM     16 O11  LIG A   1       9.794   7.132   5.443 +0.00 -0.00    -0.800 OA 
DOCKED: ATOM     17 O12  LIG A   1       5.995   7.678   9.296 +0.00 -0.00    -0.750 OA 
DOCKED: ATOM     18 O13  LIG A   1       4.634   2.433   8.683 +0.00 -0.00    -0.800 OA 
DOCKED: ATOM     19 O14  LIG A   1       8.171   1.920   4.695 +0.02 -0.00    -0.800 OA 
DOCKED: ATOM     20 V6   LIG A   1       5.775   5.359   5.446 +0.03 +0.01    +1.500 V  
DOCKED: ATOM     21 O15  LIG A   1       4.549   6.024   4.508 +0.04 -0.01    -0.750 OA 
DOCKED: ATOM     22 V7   LIG A   1       3.705   7.650   5.438 +0.04 +0.02    +1.500 V  
DOCKED: ATOM     23 O16  LIG A   1       2.611   8.072   4.343 +0.03 -0.02    -0.800 OA 
DOCKED: ATOM     24 O17  LIG A   1       2.737   6.271   6.421 +0.03 -0.01    -0.750 OA 
DOCKED: ATOM     25 V8   LIG A   1       3.651   5.527   7.687 +0.02 +0.01    +1.500 V  
DOCKED: ATOM     26 O18  LIG A   1       5.285   6.809   6.910 +0.00 -0.00    -0.750 OA 
DOCKED: ATOM     27 O19  LIG A   1       5.233   8.515   4.846 +0.01 -0.01    -0.750 OA 
DOCKED: ATOM     28 V9   LIG A   1       6.698   8.301   5.891 +0.00 +0.01    +1.500 V  
DOCKED: ATOM     29 V10  LIG A   1       4.657   8.646   8.173 +0.00 +0.00    +1.500 V  
DOCKED: ATOM     30 O20  LIG A   1       3.444   8.792   6.804 +0.00 -0.00    -0.750 OA 
DOCKED: ATOM     31 O21  LIG A   1       3.468   7.137   8.830 +0.00 -0.00    -0.750 OA 
DOCKED: ATOM     32 O22  LIG A   1       5.282   5.082   8.858 +0.00 -0.00    -0.750 OA 
DOCKED: ATOM     33 O23  LIG A   1       6.004   9.375   7.258 +0.00 -0.00    -0.750 OA 
DOCKED: ATOM     34 O24  LIG A   1       7.781   9.270   5.225 +0.00 -0.00    -0.800 OA 
DOCKED: ATOM     35 O25  LIG A   1       4.244   9.783   9.213 +0.00 -0.00    -0.800 OA 
DOCKED: ATOM     36 O26  LIG A   1       4.610   4.288   6.607 +0.02 -0.01    -0.750 OA 
DOCKED: ATOM     37 O27  LIG A   1       2.621   4.572   8.465 +0.01 -0.00    -0.800 OA 
DOCKED: ATOM     38 O28  LIG A   1       6.420   4.026   4.612 +0.02 -0.01    -0.750 OA 
DOCKED: ENDROOT
DOCKED: TORSDOF 0
DOCKED: TER
DOCKED: ENDMDL
________________________________________________________________________________


    FINAL DOCKED STATE:
    ________________________


Run:   11 / 20
Time taken for this run:   0.006s

DOCKED: MODEL        11
DOCKED: USER    Run = 11
DOCKED: USER
DOCKED: USER    Estimated Free Energy of Binding    =  +0.36 kcal/mol  [=(1)+(2)+(3)-(4)]
DOCKED: USER
DOCKED: USER    (1) Final Intermolecular Energy     =  +0.36 kcal/mol
DOCKED: USER        vdW + Hbond + desolv Energy     =  +0.44 kcal/mol
DOCKED: USER        Electrostatic Energy            =  -0.08 kcal/mol
DOCKED: USER        Moving Ligand-Fixed Receptor    =  +0.36 kcal/mol
DOCKED: USER        Moving Ligand-Moving Receptor   =  +0.00 kcal/mol
DOCKED: USER    (2) Final Total Internal Energy     =  +0.00 kcal/mol
DOCKED: USER    (3) Torsional Free Energy           =  +0.00 kcal/mol
DOCKED: USER    (4) Unbound System's Energy         =  +0.00 kcal/mol
DOCKED: USER
DOCKED: USER
DOCKED: USER                              x       y       z     vdW  Elec       q    Type
DOCKED: USER                           _______ _______ _______ _____ _____    ______ ____
DOCKED: ROOT
DOCKED: ATOM      1 V1   LIG A   1       8.597  -4.324   6.355 +0.01 -0.00    +1.500 V  
DOCKED: ATOM      2 V2   LIG A   1       7.463  -7.131   5.721 +0.01 -0.01    +1.500 V  
DOCKED: ATOM      3 V3   LIG A   1       5.566  -4.696   5.896 +0.05 -0.01    +1.500 V  
DOCKED: ATOM      4 V4   LIG A   1       6.633  -3.874   8.706 +0.00 +0.00    +1.500 V  
DOCKED: ATOM      5 V5   LIG A   1       8.572  -6.268   8.721 +0.00 +0.00    +1.500 V  
DOCKED: ATOM      6 O1   LIG A   1       9.670  -3.411   5.590 +0.00 +0.00    -0.800 OA 
DOCKED: ATOM      7 O2   LIG A   1       8.580  -5.909   5.219 +0.01 +0.00    -0.750 OA 
DOCKED: ATOM      8 O3   LIG A   1       6.899  -3.867   5.293 +0.02 +0.01    -0.750 OA 
DOCKED: ATOM      9 O4   LIG A   1       7.877  -3.157   7.601 +0.00 -0.00    -0.750 OA 
DOCKED: ATOM     10 O5   LIG A   1       9.561  -5.226   7.579 +0.00 -0.00    -0.750 OA 
DOCKED: ATOM     11 O6   LIG A   1       6.903  -5.627   7.251 +0.00 +0.00    -0.750 OA 
DOCKED: ATOM     12 O7   LIG A   1       5.953  -8.010   6.806 +0.00 +0.00    -0.750 OA 
DOCKED: ATOM     13 O8   LIG A   1       5.900  -6.377   4.941 +0.01 +0.01    -0.750 OA 
DOCKED: ATOM     14 O9   LIG A   1       8.636  -7.649   7.234 +0.00 +0.00    -0.750 OA 
DOCKED: ATOM     15 O10  LIG A   1       7.899  -4.893   9.636 +0.00 -0.00    -0.750 OA 
DOCKED: ATOM     16 O11  LIG A   1       7.742  -8.395   4.768 +0.00 +0.00    -0.800 OA 
DOCKED: ATOM     17 O12  LIG A   1       4.208  -4.265   4.968 +0.03 -0.00    -0.750 OA 
DOCKED: ATOM     18 O13  LIG A   1       6.326  -2.697   9.743 +0.00 -0.00    -0.800 OA 
DOCKED: ATOM     19 O14  LIG A   1       9.638  -6.906   9.723 +0.00 -0.00    -0.800 OA 
DOCKED: ATOM     20 V6   LIG A   1       5.619  -6.918   8.319 +0.00 +0.00    +1.500 V  
DOCKED: ATOM     21 O15  LIG A   1       4.286  -7.747   8.922 +0.00 -0.00    -0.750 OA 
DOCKED: ATOM     22 V7   LIG A   1       2.587  -7.289   7.859 +0.01 +0.00    +1.500 V  
DOCKED: ATOM     23 O16  LIG A   1       1.515  -8.204   8.625 +0.00 -0.00    -0.800 OA 
DOCKED: ATOM     24 O17  LIG A   1       2.605  -5.704   8.996 +0.00 -0.00    -0.750 OA 
DOCKED: ATOM     25 V8   LIG A   1       3.721  -4.482   8.493 +0.01 +0.01    +1.500 V  
DOCKED: ATOM     26 O18  LIG A   1       4.282  -5.987   6.964 +0.01 -0.00    -0.750 OA 
DOCKED: ATOM     27 O19  LIG A   1       3.308  -8.457   6.613 +0.00 -0.00    -0.750 OA 
DOCKED: ATOM     28 V9   LIG A   1       4.552  -7.739   5.509 +0.02 -0.00    +1.500 V  
DOCKED: ATOM     29 V10  LIG A   1       2.613  -5.345   5.494 +0.13 +0.04    +1.500 V  
DOCKED: ATOM     30 O20  LIG A   1       1.624  -6.388   6.635 +0.02 -0.01    -0.750 OA 
DOCKED: ATOM     31 O21  LIG A   1       2.548  -3.965   6.981 +0.02 -0.02    -0.750 OA 
DOCKED: ATOM     32 O22  LIG A   1       5.231  -3.603   7.408 +0.01 -0.00    -0.750 OA 
DOCKED: ATOM     33 O23  LIG A   1       3.286  -6.721   4.579 +0.03 -0.00    -0.750 OA 
DOCKED: ATOM     34 O24  LIG A   1       4.858  -8.916   4.472 +0.01 +0.00    -0.800 OA 
DOCKED: ATOM     35 O25  LIG A   1       1.547  -4.708   4.492 +0.02 -0.10    -0.800 OA 
DOCKED: ATOM     36 O26  LIG A   1       5.284  -5.236   9.274 +0.00 -0.00    -0.750 OA 
DOCKED: ATOM     37 O27  LIG A   1       3.443  -3.219   9.446 +0.00 -0.00    -0.800 OA 
DOCKED: ATOM     38 O28  LIG A   1       6.976  -7.348   9.246 +0.00 -0.00    -0.750 OA 
DOCKED: ENDROOT
DOCKED: TORSDOF 0
DOCKED: TER
DOCKED: ENDMDL
________________________________________________________________________________


    FINAL DOCKED STATE:
    ________________________


Run:   12 / 20
Time taken for this run:   0.006s

DOCKED: MODEL        12
DOCKED: USER    Run = 12
DOCKED: USER
DOCKED: USER    Estimated Free Energy of Binding    =  +0.43 kcal/mol  [=(1)+(2)+(3)-(4)]
DOCKED: USER
DOCKED: USER    (1) Final Intermolecular Energy     =  +0.43 kcal/mol
DOCKED: USER        vdW + Hbond + desolv Energy     =  +0.36 kcal/mol
DOCKED: USER        Electrostatic Energy            =  +0.07 kcal/mol
DOCKED: USER        Moving Ligand-Fixed Receptor    =  +0.43 kcal/mol
DOCKED: USER        Moving Ligand-Moving Receptor   =  +0.00 kcal/mol
DOCKED: USER    (2) Final Total Internal Energy     =  +0.00 kcal/mol
DOCKED: USER    (3) Torsional Free Energy           =  +0.00 kcal/mol
DOCKED: USER    (4) Unbound System's Energy         =  +0.00 kcal/mol
DOCKED: USER
DOCKED: USER
DOCKED: USER                              x       y       z     vdW  Elec       q    Type
DOCKED: USER                           _______ _______ _______ _____ _____    ______ ____
DOCKED: ROOT
DOCKED: ATOM      1 V1   LIG A   1      -3.257   7.973  -8.485 +0.00 -0.01    +1.500 V  
DOCKED: ATOM      2 V2   LIG A   1      -2.871   5.385  -6.836 +0.05 -0.03    +1.500 V  
DOCKED: ATOM      3 V3   LIG A   1      -5.357   5.715  -8.645 +0.00 -0.01    +1.500 V  
DOCKED: ATOM      4 V4   LIG A   1      -6.106   8.459  -7.374 +0.00 -0.00    +1.500 V  
DOCKED: ATOM      5 V5   LIG A   1      -3.690   8.289  -5.470 +0.02 -0.01    +1.500 V  
DOCKED: ATOM      6 O1   LIG A   1      -2.359   8.655  -9.625 +0.00 +0.00    -0.800 OA 
DOCKED: ATOM      7 O2   LIG A   1      -2.171   6.417  -8.035 +0.01 +0.01    -0.750 OA 
DOCKED: ATOM      8 O3   LIG A   1      -4.294   6.598  -9.604 +0.00 +0.00    -0.750 OA 
DOCKED: ATOM      9 O4   LIG A   1      -4.841   8.931  -8.581 +0.00 +0.00    -0.750 OA 
DOCKED: ATOM     10 O5   LIG A   1      -2.730   8.768  -6.958 +0.00 +0.00    -0.750 OA 
DOCKED: ATOM     11 O6   LIG A   1      -4.578   6.790  -6.993 +0.00 +0.00    -0.750 OA 
DOCKED: ATOM     12 O7   LIG A   1      -4.284   4.656  -5.532 +0.03 +0.01    -0.750 OA 
DOCKED: ATOM     13 O8   LIG A   1      -4.037   4.419  -7.988 +0.01 +0.01    -0.750 OA 
DOCKED: ATOM     14 O9   LIG A   1      -2.447   6.685  -5.401 +0.02 +0.01    -0.750 OA 
DOCKED: ATOM     15 O10  LIG A   1      -5.154   9.193  -5.938 +0.00 +0.00    -0.750 OA 
DOCKED: ATOM     16 O11  LIG A   1      -1.747   4.288  -6.495 +0.01 +0.05    -0.800 OA 
DOCKED: ATOM     17 O12  LIG A   1      -6.173   4.604  -9.640 +0.00 +0.00    -0.750 OA 
DOCKED: ATOM     18 O13  LIG A   1      -7.261   9.542  -7.595 +0.00 +0.00    -0.800 OA 
DOCKED: ATOM     19 O14  LIG A   1      -3.070   9.158  -4.283 +0.01 +0.00    -0.800 OA 
DOCKED: ATOM     20 V6   LIG A   1      -5.654   5.957  -5.380 +0.03 -0.00    +1.500 V  
DOCKED: ATOM     21 O15  LIG A   1      -6.716   5.074  -4.421 +0.01 -0.00    -0.750 OA 
DOCKED: ATOM     22 V7   LIG A   1      -7.754   3.698  -5.541 +0.02 +0.00    +1.500 V  
DOCKED: ATOM     23 O16  LIG A   1      -8.651   3.017  -4.399 +0.01 -0.01    -0.800 OA 
DOCKED: ATOM     24 O17  LIG A   1      -8.840   5.255  -5.990 +0.00 -0.00    -0.750 OA 
DOCKED: ATOM     25 V8   LIG A   1      -8.140   6.287  -7.189 +0.00 -0.00    +1.500 V  
DOCKED: ATOM     26 O18  LIG A   1      -6.432   4.881  -7.031 +0.00 +0.00    -0.750 OA 
DOCKED: ATOM     27 O19  LIG A   1      -6.170   2.740  -5.444 +0.02 +0.00    -0.750 OA 
DOCKED: ATOM     28 V9   LIG A   1      -4.905   3.212  -6.651 +0.06 -0.02    +1.500 V  
DOCKED: ATOM     29 V10  LIG A   1      -7.321   3.382  -8.555 +0.00 -0.01    +1.500 V  
DOCKED: ATOM     30 O20  LIG A   1      -8.281   2.903  -7.066 +0.00 +0.00    -0.750 OA 
DOCKED: ATOM     31 O21  LIG A   1      -8.564   4.986  -8.624 +0.00 +0.00    -0.750 OA 
DOCKED: ATOM     32 O22  LIG A   1      -6.727   7.016  -8.493 +0.00 +0.00    -0.750 OA 
DOCKED: ATOM     33 O23  LIG A   1      -5.856   2.479  -8.087 +0.01 +0.01    -0.750 OA 
DOCKED: ATOM     34 O24  LIG A   1      -3.750   2.130  -6.430 +0.04 +0.04    -0.800 OA 
DOCKED: ATOM     35 O25  LIG A   1      -7.940   2.514  -9.741 +0.00 +0.00    -0.800 OA 
DOCKED: ATOM     36 O26  LIG A   1      -6.974   7.252  -6.037 +0.00 +0.00    -0.750 OA 
DOCKED: ATOM     37 O27  LIG A   1      -9.263   7.383  -7.530 +0.00 +0.00    -0.800 OA 
DOCKED: ATOM     38 O28  LIG A   1      -4.838   7.067  -4.385 +0.01 +0.00    -0.750 OA 
DOCKED: ENDROOT
DOCKED: TORSDOF 0
DOCKED: TER
DOCKED: ENDMDL
________________________________________________________________________________


    FINAL DOCKED STATE:
    ________________________


Run:   13 / 20
Time taken for this run:   0.006s

DOCKED: MODEL        13
DOCKED: USER    Run = 13
DOCKED: USER
DOCKED: USER    Estimated Free Energy of Binding    =  +0.30 kcal/mol  [=(1)+(2)+(3)-(4)]
DOCKED: USER
DOCKED: USER    (1) Final Intermolecular Energy     =  +0.30 kcal/mol
DOCKED: USER        vdW + Hbond + desolv Energy     =  +0.34 kcal/mol
DOCKED: USER        Electrostatic Energy            =  -0.05 kcal/mol
DOCKED: USER        Moving Ligand-Fixed Receptor    =  +0.30 kcal/mol
DOCKED: USER        Moving Ligand-Moving Receptor   =  +0.00 kcal/mol
DOCKED: USER    (2) Final Total Internal Energy     =  +0.00 kcal/mol
DOCKED: USER    (3) Torsional Free Energy           =  +0.00 kcal/mol
DOCKED: USER    (4) Unbound System's Energy         =  +0.00 kcal/mol
DOCKED: USER
DOCKED: USER
DOCKED: USER                              x       y       z     vdW  Elec       q    Type
DOCKED: USER                           _______ _______ _______ _____ _____    ______ ____
DOCKED: ROOT
DOCKED: ATOM      1 V1   LIG A   1       5.362   2.506   6.753 +0.02 +0.02    +1.500 V  
DOCKED: ATOM      2 V2   LIG A   1       5.496   5.070   8.478 +0.00 +0.01    +1.500 V  
DOCKED: ATOM      3 V3   LIG A   1       5.491   5.275   5.393 +0.04 +0.01    +1.500 V  
DOCKED: ATOM      4 V4   LIG A   1       7.867   3.279   5.104 +0.02 +0.01    +1.500 V  
DOCKED: ATOM      5 V5   LIG A   1       8.039   2.970   8.165 +0.00 +0.01    +1.500 V  
DOCKED: ATOM      6 O1   LIG A   1       4.264   1.340   6.659 +0.04 -0.02    -0.800 OA 
DOCKED: ATOM      7 O2   LIG A   1       4.583   3.641   8.135 +0.00 -0.01    -0.750 OA 
DOCKED: ATOM      8 O3   LIG A   1       4.524   3.904   5.503 +0.04 -0.01    -0.750 OA 
DOCKED: ATOM      9 O4   LIG A   1       6.452   2.163   5.293 +0.03 -0.01    -0.750 OA 
DOCKED: ATOM     10 O5   LIG A   1       6.566   1.899   7.946 +0.00 -0.00    -0.750 OA 
DOCKED: ATOM     11 O6   LIG A   1       6.766   4.349   6.810 +0.00 -0.00    -0.750 OA 
DOCKED: ATOM     12 O7   LIG A   1       6.968   6.491   8.274 +0.00 -0.00    -0.750 OA 
DOCKED: ATOM     13 O8   LIG A   1       4.849   6.131   7.038 +0.01 -0.00    -0.750 OA 
DOCKED: ATOM     14 O9   LIG A   1       6.867   4.018   9.450 +0.00 -0.00    -0.750 OA 
DOCKED: ATOM     15 O10  LIG A   1       8.760   2.562   6.586 +0.00 -0.00    -0.750 OA 
DOCKED: ATOM     16 O11  LIG A   1       4.782   5.749   9.747 +0.00 -0.00    -0.800 OA 
DOCKED: ATOM     17 O12  LIG A   1       4.733   6.378   4.345 +0.03 -0.01    -0.750 OA 
DOCKED: ATOM     18 O13  LIG A   1       8.684   2.648   3.885 +0.02 -0.00    -0.800 OA 
DOCKED: ATOM     19 O14  LIG A   1       8.959   2.196   9.214 +0.00 -0.00    -0.800 OA 
DOCKED: ATOM     20 V6   LIG A   1       8.266   5.810   7.073 +0.00 +0.01    +1.500 V  
DOCKED: ATOM     21 O15  LIG A   1       9.233   7.181   6.964 +0.00 -0.00    -0.750 OA 
DOCKED: ATOM     22 V7   LIG A   1       8.395   8.580   5.713 +0.00 +0.01    +1.500 V  
DOCKED: ATOM     23 O16  LIG A   1       9.493   9.745   5.808 +0.00 -0.00    -0.800 OA 
DOCKED: ATOM     24 O17  LIG A   1       9.174   7.445   4.331 +0.00 -0.00    -0.750 OA 
DOCKED: ATOM     25 V8   LIG A   1       8.261   6.016   3.988 +0.01 +0.01    +1.500 V  
DOCKED: ATOM     26 O18  LIG A   1       6.992   6.737   5.657 +0.00 -0.00    -0.750 OA 
DOCKED: ATOM     27 O19  LIG A   1       7.306   8.922   7.173 +0.00 -0.00    -0.750 OA 
DOCKED: ATOM     28 V9   LIG A   1       5.891   7.806   7.362 +0.00 +0.01    +1.500 V  
DOCKED: ATOM     29 V10  LIG A   1       5.718   8.115   4.301 +0.01 +0.01    +1.500 V  
DOCKED: ATOM     30 O20  LIG A   1       7.191   9.186   4.521 +0.00 -0.00    -0.750 OA 
DOCKED: ATOM     31 O21  LIG A   1       6.890   7.068   3.016 +0.01 -0.01    -0.750 OA 
DOCKED: ATOM     32 O22  LIG A   1       6.790   4.594   4.192 +0.02 -0.01    -0.750 OA 
DOCKED: ATOM     33 O23  LIG A   1       4.998   8.524   5.881 +0.00 -0.00    -0.750 OA 
DOCKED: ATOM     34 O24  LIG A   1       5.073   8.437   8.581 +0.00 -0.00    -0.800 OA 
DOCKED: ATOM     35 O25  LIG A   1       4.798   8.890   3.253 +0.01 -0.01    -0.800 OA 
DOCKED: ATOM     36 O26  LIG A   1       8.909   4.954   5.428 +0.00 -0.00    -0.750 OA 
DOCKED: ATOM     37 O27  LIG A   1       8.975   5.337   2.720 +0.01 -0.01    -0.800 OA 
DOCKED: ATOM     38 O28  LIG A   1       9.024   4.708   8.121 +0.00 -0.00    -0.750 OA 
DOCKED: ENDROOT
DOCKED: TORSDOF 0
DOCKED: TER
DOCKED: ENDMDL
________________________________________________________________________________


    FINAL DOCKED STATE:
    ________________________


Run:   14 / 20
Time taken for this run:   0.006s

DOCKED: MODEL        14
DOCKED: USER    Run = 14
DOCKED: USER
DOCKED: USER    Estimated Free Energy of Binding    =  +0.40 kcal/mol  [=(1)+(2)+(3)-(4)]
DOCKED: USER
DOCKED: USER    (1) Final Intermolecular Energy     =  +0.40 kcal/mol
DOCKED: USER        vdW + Hbond + desolv Energy     =  +0.47 kcal/mol
DOCKED: USER        Electrostatic Energy            =  -0.06 kcal/mol
DOCKED: USER        Moving Ligand-Fixed Receptor    =  +0.40 kcal/mol
DOCKED: USER        Moving Ligand-Moving Receptor   =  +0.00 kcal/mol
DOCKED: USER    (2) Final Total Internal Energy     =  +0.00 kcal/mol
DOCKED: USER    (3) Torsional Free Energy           =  +0.00 kcal/mol
DOCKED: USER    (4) Unbound System's Energy         =  +0.00 kcal/mol
DOCKED: USER
DOCKED: USER
DOCKED: USER                              x       y       z     vdW  Elec       q    Type
DOCKED: USER                           _______ _______ _______ _____ _____    ______ ____
DOCKED: ROOT
DOCKED: ATOM      1 V1   LIG A   1       4.325   3.140   8.665 +0.00 +0.01    +1.500 V  
DOCKED: ATOM      2 V2   LIG A   1       6.403   3.413   6.391 +0.02 +0.01    +1.500 V  
DOCKED: ATOM      3 V3   LIG A   1       6.302   5.512   8.659 +0.00 +0.01    +1.500 V  
DOCKED: ATOM      4 V4   LIG A   1       3.253   6.018   8.262 +0.01 +0.01    +1.500 V  
DOCKED: ATOM      5 V5   LIG A   1       3.168   3.977   5.955 +0.16 +0.03    +1.500 V  
DOCKED: ATOM      6 O1   LIG A   1       4.075   1.984   9.747 +0.00 -0.00    -0.800 OA 
DOCKED: ATOM      7 O2   LIG A   1       5.812   2.388   7.652 +0.00 -0.01    -0.750 OA 
DOCKED: ATOM      8 O3   LIG A   1       5.829   4.192   9.587 +0.00 -0.00    -0.750 OA 
DOCKED: ATOM      9 O4   LIG A   1       3.261   4.524   9.288 +0.00 -0.00    -0.750 OA 
DOCKED: ATOM     10 O5   LIG A   1       3.212   2.738   7.307 +0.03 -0.01    -0.750 OA 
DOCKED: ATOM     11 O6   LIG A   1       4.915   4.840   7.205 +0.01 -0.01    -0.750 OA 
DOCKED: ATOM     12 O7   LIG A   1       6.599   5.105   5.238 +0.01 -0.01    -0.750 OA 
DOCKED: ATOM     13 O8   LIG A   1       7.510   4.523   7.470 +0.00 -0.00    -0.750 OA 
DOCKED: ATOM     14 O9   LIG A   1       4.820   3.020   5.264 +0.05 -0.02    -0.750 OA 
DOCKED: ATOM     15 O10  LIG A   1       2.270   5.196   6.896 +0.03 -0.01    -0.750 OA 
DOCKED: ATOM     16 O11  LIG A   1       7.484   2.537   5.587 +0.01 -0.01    -0.800 OA 
DOCKED: ATOM     17 O12  LIG A   1       7.543   6.326   9.488 +0.00 -0.00    -0.750 OA 
DOCKED: ATOM     18 O13  LIG A   1       2.151   6.945   8.954 +0.00 -0.00    -0.800 OA 
DOCKED: ATOM     19 O14  LIG A   1       2.087   3.421   4.922 +0.05 -0.04    -0.800 OA 
DOCKED: ATOM     20 V6   LIG A   1       5.165   6.266   5.668 +0.03 +0.01    +1.500 V  
DOCKED: ATOM     21 O15  LIG A   1       5.639   7.585   4.740 +0.01 -0.01    -0.750 OA 
DOCKED: ATOM     22 V7   LIG A   1       7.143   8.637   5.664 +0.00 +0.01    +1.500 V  
DOCKED: ATOM     23 O16  LIG A   1       7.392   9.793   4.580 +0.00 -0.00    -0.800 OA 
DOCKED: ATOM     24 O17  LIG A   1       5.655   9.390   6.676 +0.00 -0.00    -0.750 OA 
DOCKED: ATOM     25 V8   LIG A   1       5.064   8.365   7.937 +0.00 +0.01    +1.500 V  
DOCKED: ATOM     26 O18  LIG A   1       6.552   6.937   7.122 +0.00 -0.00    -0.750 OA 
DOCKED: ATOM     27 O19  LIG A   1       8.206   7.253   5.040 +0.00 -0.00    -0.750 OA 
DOCKED: ATOM     28 V9   LIG A   1       8.214   5.760   6.066 +0.00 +0.01    +1.500 V  
DOCKED: ATOM     29 V10  LIG A   1       8.299   7.801   8.372 +0.00 +0.00    +1.500 V  
DOCKED: ATOM     30 O20  LIG A   1       8.255   9.039   7.020 +0.00 -0.00    -0.750 OA 
DOCKED: ATOM     31 O21  LIG A   1       6.647   8.758   9.064 +0.00 -0.00    -0.750 OA 
DOCKED: ATOM     32 O22  LIG A   1       4.868   6.673   9.090 +0.00 -0.00    -0.750 OA 
DOCKED: ATOM     33 O23  LIG A   1       9.197   6.581   7.431 +0.00 -0.00    -0.750 OA 
DOCKED: ATOM     34 O24  LIG A   1       9.316   4.833   5.374 +0.00 -0.00    -0.800 OA 
DOCKED: ATOM     35 O25  LIG A   1       9.380   8.357   9.405 +0.00 -0.00    -0.800 OA 
DOCKED: ATOM     36 O26  LIG A   1       3.957   7.255   6.858 +0.01 -0.00    -0.750 OA 
DOCKED: ATOM     37 O27  LIG A   1       3.984   9.241   8.740 +0.00 -0.00    -0.800 OA 
DOCKED: ATOM     38 O28  LIG A   1       3.924   5.452   4.840 +0.05 -0.01    -0.750 OA 
DOCKED: ENDROOT
DOCKED: TORSDOF 0
DOCKED: TER
DOCKED: ENDMDL
________________________________________________________________________________


    FINAL DOCKED STATE:
    ________________________


Run:   15 / 20
Time taken for this run:   0.006s

DOCKED: MODEL        15
DOCKED: USER    Run = 15
DOCKED: USER
DOCKED: USER    Estimated Free Energy of Binding    =  +0.38 kcal/mol  [=(1)+(2)+(3)-(4)]
DOCKED: USER
DOCKED: USER    (1) Final Intermolecular Energy     =  +0.38 kcal/mol
DOCKED: USER        vdW + Hbond + desolv Energy     =  +0.43 kcal/mol
DOCKED: USER        Electrostatic Energy            =  -0.06 kcal/mol
DOCKED: USER        Moving Ligand-Fixed Receptor    =  +0.38 kcal/mol
DOCKED: USER        Moving Ligand-Moving Receptor   =  +0.00 kcal/mol
DOCKED: USER    (2) Final Total Internal Energy     =  +0.00 kcal/mol
DOCKED: USER    (3) Torsional Free Energy           =  +0.00 kcal/mol
DOCKED: USER    (4) Unbound System's Energy         =  +0.00 kcal/mol
DOCKED: USER
DOCKED: USER
DOCKED: USER                              x       y       z     vdW  Elec       q    Type
DOCKED: USER                           _______ _______ _______ _____ _____    ______ ____
DOCKED: ROOT
DOCKED: ATOM      1 V1   LIG A   1       8.719   7.026   8.268 +0.00 +0.00    +1.500 V  
DOCKED: ATOM      2 V2   LIG A   1       7.074   7.889   5.795 +0.00 +0.01    +1.500 V  
DOCKED: ATOM      3 V3   LIG A   1       5.634   7.034   8.395 +0.00 +0.01    +1.500 V  
DOCKED: ATOM      4 V4   LIG A   1       7.198   4.344   8.557 +0.00 +0.01    +1.500 V  
DOCKED: ATOM      5 V5   LIG A   1       8.712   5.015   5.959 +0.00 +0.01    +1.500 V  
DOCKED: ATOM      6 O1   LIG A   1       9.808   7.806   9.150 +0.00 -0.00    -0.800 OA 
DOCKED: ATOM      7 O2   LIG A   1       8.291   8.374   6.925 +0.00 -0.00    -0.750 OA 
DOCKED: ATOM      8 O3   LIG A   1       6.985   7.713   9.130 +0.00 -0.00    -0.750 OA 
DOCKED: ATOM      9 O4   LIG A   1       8.375   5.514   9.284 +0.00 -0.00    -0.750 OA 
DOCKED: ATOM     10 O5   LIG A   1       9.686   6.129   7.043 +0.00 -0.00    -0.750 OA 
DOCKED: ATOM     11 O6   LIG A   1       6.980   6.076   7.067 +0.00 -0.00    -0.750 OA 
DOCKED: ATOM     12 O7   LIG A   1       5.608   6.720   4.950 +0.01 -0.01    -0.750 OA 
DOCKED: ATOM     13 O8   LIG A   1       5.559   8.278   6.879 +0.00 -0.00    -0.750 OA 
DOCKED: ATOM     14 O9   LIG A   1       8.348   6.687   4.866 +0.00 -0.00    -0.750 OA 
DOCKED: ATOM     15 O10  LIG A   1       8.401   3.802   7.228 +0.00 -0.00    -0.750 OA 
DOCKED: ATOM     16 O11  LIG A   1       7.011   9.058   4.694 +0.00 -0.00    -0.800 OA 
DOCKED: ATOM     17 O12  LIG A   1       4.247   7.650   9.161 +0.00 -0.00    -0.750 OA 
DOCKED: ATOM     18 O13  LIG A   1       7.231   3.102   9.562 +0.00 -0.00    -0.800 OA 
DOCKED: ATOM     19 O14  LIG A   1       9.791   4.311   5.016 +0.00 -0.00    -0.800 OA 
DOCKED: ATOM     20 V6   LIG A   1       5.666   5.024   5.794 +0.02 +0.01    +1.500 V  
DOCKED: ATOM     21 O15  LIG A   1       4.315   4.345   5.058 +0.05 -0.01    -0.750 OA 
DOCKED: ATOM     22 V7   LIG A   1       2.581   5.032   5.920 +0.15 +0.02    +1.500 V  
DOCKED: ATOM     23 O16  LIG A   1       1.492   4.252   5.038 +0.02 -0.03    -0.800 OA 
DOCKED: ATOM     24 O17  LIG A   1       3.009   3.684   7.263 +0.03 -0.01    -0.750 OA 
DOCKED: ATOM     25 V8   LIG A   1       4.226   4.169   8.393 +0.00 +0.01    +1.500 V  
DOCKED: ATOM     26 O18  LIG A   1       4.320   5.982   7.120 +0.01 -0.01    -0.750 OA 
DOCKED: ATOM     27 O19  LIG A   1       2.925   6.544   4.905 +0.04 -0.01    -0.750 OA 
DOCKED: ATOM     28 V9   LIG A   1       4.102   7.714   5.632 +0.03 +0.01    +1.500 V  
DOCKED: ATOM     29 V10  LIG A   1       2.587   7.043   8.229 +0.01 +0.01    +1.500 V  
DOCKED: ATOM     30 O20  LIG A   1       1.614   5.929   7.145 +0.03 -0.00    -0.750 OA 
DOCKED: ATOM     31 O21  LIG A   1       2.952   5.371   9.322 +0.00 -0.00    -0.750 OA 
DOCKED: ATOM     32 O22  LIG A   1       5.691   5.338   9.238 +0.00 -0.00    -0.750 OA 
DOCKED: ATOM     33 O23  LIG A   1       2.899   8.256   6.959 +0.01 -0.00    -0.750 OA 
DOCKED: ATOM     34 O24  LIG A   1       4.069   8.955   4.626 +0.01 -0.01    -0.800 OA 
DOCKED: ATOM     35 O25  LIG A   1       1.509   7.747   9.171 +0.00 -0.00    -0.800 OA 
DOCKED: ATOM     36 O26  LIG A   1       5.741   3.779   7.310 +0.00 -0.01    -0.750 OA 
DOCKED: ATOM     37 O27  LIG A   1       4.288   3.001   9.494 +0.00 -0.00    -0.800 OA 
DOCKED: ATOM     38 O28  LIG A   1       7.053   4.409   5.028 +0.01 -0.01    -0.750 OA 
DOCKED: ENDROOT
DOCKED: TORSDOF 0
DOCKED: TER
DOCKED: ENDMDL
________________________________________________________________________________


    FINAL DOCKED STATE:
    ________________________


Run:   16 / 20
Time taken for this run:   0.006s

DOCKED: MODEL        16
DOCKED: USER    Run = 16
DOCKED: USER
DOCKED: USER    Estimated Free Energy of Binding    =  +0.32 kcal/mol  [=(1)+(2)+(3)-(4)]
DOCKED: USER
DOCKED: USER    (1) Final Intermolecular Energy     =  +0.32 kcal/mol
DOCKED: USER        vdW + Hbond + desolv Energy     =  +0.37 kcal/mol
DOCKED: USER        Electrostatic Energy            =  -0.05 kcal/mol
DOCKED: USER        Moving Ligand-Fixed Receptor    =  +0.32 kcal/mol
DOCKED: USER        Moving Ligand-Moving Receptor   =  +0.00 kcal/mol
DOCKED: USER    (2) Final Total Internal Energy     =  +0.00 kcal/mol
DOCKED: USER    (3) Torsional Free Energy           =  +0.00 kcal/mol
DOCKED: USER    (4) Unbound System's Energy         =  +0.00 kcal/mol
DOCKED: USER
DOCKED: USER
DOCKED: USER                              x       y       z     vdW  Elec       q    Type
DOCKED: USER                           _______ _______ _______ _____ _____    ______ ____
DOCKED: ROOT
DOCKED: ATOM      1 V1   LIG A   1       6.371   3.006   4.051 +0.12 +0.02    +1.500 V  
DOCKED: ATOM      2 V2   LIG A   1       5.924   3.422   7.083 +0.01 +0.01    +1.500 V  
DOCKED: ATOM      3 V3   LIG A   1       6.066   5.860   5.187 +0.02 +0.01    +1.500 V  
DOCKED: ATOM      4 V4   LIG A   1       8.783   4.946   3.967 +0.02 +0.01    +1.500 V  
DOCKED: ATOM      5 V5   LIG A   1       8.827   2.471   5.802 +0.01 +0.01    +1.500 V  
DOCKED: ATOM      6 O1   LIG A   1       5.517   2.218   2.945 +0.04 -0.03    -0.800 OA 
DOCKED: ATOM      7 O2   LIG A   1       5.314   2.662   5.653 +0.03 -0.01    -0.750 OA 
DOCKED: ATOM      8 O3   LIG A   1       5.365   4.796   4.090 +0.04 -0.01    -0.750 OA 
DOCKED: ATOM      9 O4   LIG A   1       7.592   3.955   3.029 +0.02 -0.01    -0.750 OA 
DOCKED: ATOM     10 O5   LIG A   1       7.594   1.810   4.615 +0.02 -0.00    -0.750 OA 
DOCKED: ATOM     11 O6   LIG A   1       7.402   4.292   5.679 +0.01 -0.01    -0.750 OA 
DOCKED: ATOM     12 O7   LIG A   1       7.115   4.630   8.244 +0.00 -0.00    -0.750 OA 
DOCKED: ATOM     13 O8   LIG A   1       5.178   5.147   6.785 +0.01 -0.01    -0.750 OA 
DOCKED: ATOM     14 O9   LIG A   1       7.405   2.110   7.206 +0.00 -0.00    -0.750 OA 
DOCKED: ATOM     15 O10  LIG A   1       9.703   3.437   4.587 +0.00 -0.00    -0.750 OA 
DOCKED: ATOM     16 O11  LIG A   1       5.020   2.867   8.291 +0.00 -0.01    -0.800 OA 
DOCKED: ATOM     17 O12  LIG A   1       5.180   7.311   5.159 +0.01 -0.01    -0.750 OA 
DOCKED: ATOM     18 O13  LIG A   1       9.776   5.504   2.846 +0.00 -0.00    -0.800 OA 
DOCKED: ATOM     19 O14  LIG A   1       9.809   1.249   6.098 +0.00 -0.00    -0.800 OA 
DOCKED: ATOM     20 V6   LIG A   1       8.587   5.180   7.184 +0.00 +0.01    +1.500 V  
DOCKED: ATOM     21 O15  LIG A   1       9.287   6.244   8.282 +0.00 -0.00    -0.750 OA 
DOCKED: ATOM     22 V7   LIG A   1       8.280   8.035   8.320 +0.00 +0.00    +1.500 V  
DOCKED: ATOM     23 O16  LIG A   1       9.135   8.822   9.426 +0.00 -0.00    -0.800 OA 
DOCKED: ATOM     24 O17  LIG A   1       9.338   8.379   6.718 +0.00 -0.00    -0.750 OA 
DOCKED: ATOM     25 V8   LIG A   1       8.729   7.618   5.288 +0.00 +0.01    +1.500 V  
DOCKED: ATOM     26 O18  LIG A   1       7.250   6.748   6.692 +0.00 -0.00    -0.750 OA 
DOCKED: ATOM     27 O19  LIG A   1       7.061   7.085   9.342 +0.00 -0.00    -0.750 OA 
DOCKED: ATOM     28 V9   LIG A   1       5.869   6.095   8.404 +0.00 +0.01    +1.500 V  
DOCKED: ATOM     29 V10  LIG A   1       5.826   8.569   6.569 +0.00 +0.01    +1.500 V  
DOCKED: ATOM     30 O20  LIG A   1       7.059   9.230   7.757 +0.00 -0.00    -0.750 OA 
DOCKED: ATOM     31 O21  LIG A   1       7.247   8.930   5.164 +0.00 -0.00    -0.750 OA 
DOCKED: ATOM     32 O22  LIG A   1       7.538   6.410   4.127 +0.01 -0.01    -0.750 OA 
DOCKED: ATOM     33 O23  LIG A   1       4.949   7.603   7.785 +0.00 -0.00    -0.750 OA 
DOCKED: ATOM     34 O24  LIG A   1       4.877   5.536   9.525 +0.00 -0.00    -0.800 OA 
DOCKED: ATOM     35 O25  LIG A   1       4.843   9.791   6.273 +0.00 -0.00    -0.800 OA 
DOCKED: ATOM     36 O26  LIG A   1       9.475   5.894   5.586 +0.00 -0.00    -0.750 OA 
DOCKED: ATOM     37 O27  LIG A   1       9.631   8.173   4.081 +0.00 -0.00    -0.800 OA 
DOCKED: ATOM     38 O28  LIG A   1       9.472   3.730   7.212 +0.00 -0.00    -0.750 OA 
DOCKED: ENDROOT
DOCKED: TORSDOF 0
DOCKED: TER
DOCKED: ENDMDL
________________________________________________________________________________


    FINAL DOCKED STATE:
    ________________________


Run:   17 / 20
Time taken for this run:   0.006s

DOCKED: MODEL        17
DOCKED: USER    Run = 17
DOCKED: USER
DOCKED: USER    Estimated Free Energy of Binding    =  +0.38 kcal/mol  [=(1)+(2)+(3)-(4)]
DOCKED: USER
DOCKED: USER    (1) Final Intermolecular Energy     =  +0.38 kcal/mol
DOCKED: USER        vdW + Hbond + desolv Energy     =  +0.46 kcal/mol
DOCKED: USER        Electrostatic Energy            =  -0.08 kcal/mol
DOCKED: USER        Moving Ligand-Fixed Receptor    =  +0.38 kcal/mol
DOCKED: USER        Moving Ligand-Moving Receptor   =  +0.00 kcal/mol
DOCKED: USER    (2) Final Total Internal Energy     =  +0.00 kcal/mol
DOCKED: USER    (3) Torsional Free Energy           =  +0.00 kcal/mol
DOCKED: USER    (4) Unbound System's Energy         =  +0.00 kcal/mol
DOCKED: USER
DOCKED: USER
DOCKED: USER                              x       y       z     vdW  Elec       q    Type
DOCKED: USER                           _______ _______ _______ _____ _____    ______ ____
DOCKED: ROOT
DOCKED: ATOM      1 V1   LIG A   1       2.819  -4.163   6.018 +0.13 +0.05    +1.500 V  
DOCKED: ATOM      2 V2   LIG A   1       4.933  -3.601   8.204 +0.01 +0.01    +1.500 V  
DOCKED: ATOM      3 V3   LIG A   1       5.686  -5.267   5.710 +0.05 -0.01    +1.500 V  
DOCKED: ATOM      4 V4   LIG A   1       3.292  -7.222   6.106 +0.04 +0.00    +1.500 V  
DOCKED: ATOM      5 V5   LIG A   1       2.407  -5.700   8.634 +0.01 +0.01    +1.500 V  
DOCKED: ATOM      6 O1   LIG A   1       1.966  -3.179   5.081 +0.03 -0.11    -0.800 OA 
DOCKED: ATOM      7 O2   LIG A   1       3.832  -2.880   7.082 +0.02 -0.01    -0.750 OA 
DOCKED: ATOM      8 O3   LIG A   1       4.570  -4.263   4.951 +0.02 +0.01    -0.750 OA 
DOCKED: ATOM      9 O4   LIG A   1       2.507  -5.825   5.259 +0.03 -0.02    -0.750 OA 
DOCKED: ATOM     10 O5   LIG A   1       1.752  -4.477   7.434 +0.02 -0.01    -0.750 OA 
DOCKED: ATOM     11 O6   LIG A   1       4.257  -5.489   7.259 +0.01 -0.00    -0.750 OA 
DOCKED: ATOM     12 O7   LIG A   1       6.000  -5.083   9.150 +0.00 -0.00    -0.750 OA 
DOCKED: ATOM     13 O8   LIG A   1       6.354  -3.930   6.983 +0.01 -0.00    -0.750 OA 
DOCKED: ATOM     14 O9   LIG A   1       3.442  -4.130   9.400 +0.00 -0.00    -0.750 OA 
DOCKED: ATOM     15 O10  LIG A   1       2.138  -7.110   7.576 +0.01 -0.00    -0.750 OA 
DOCKED: ATOM     16 O11  LIG A   1       5.516  -2.388   9.083 +0.00 -0.00    -0.800 OA 
DOCKED: ATOM     17 O12  LIG A   1       7.101  -5.297   4.769 +0.01 +0.01    -0.750 OA 
DOCKED: ATOM     18 O13  LIG A   1       2.722  -8.499   5.332 +0.01 -0.00    -0.800 OA 
DOCKED: ATOM     19 O14  LIG A   1       1.269  -5.836   9.746 +0.00 -0.00    -0.800 OA 
DOCKED: ATOM     20 V6   LIG A   1       5.272  -6.749   8.615 +0.00 +0.00    +1.500 V  
DOCKED: ATOM     21 O15  LIG A   1       6.387  -7.752   9.376 +0.00 -0.00    -0.750 OA 
DOCKED: ATOM     22 V7   LIG A   1       8.139  -7.852   8.307 +0.00 +0.00    +1.500 V  
DOCKED: ATOM     23 O16  LIG A   1       8.991  -8.836   9.245 +0.00 -0.00    -0.800 OA 
DOCKED: ATOM     24 O17  LIG A   1       7.126  -9.136   7.244 +0.00 +0.00    -0.750 OA 
DOCKED: ATOM     25 V8   LIG A   1       6.024  -8.415   6.121 +0.00 -0.00    +1.500 V  
DOCKED: ATOM     26 O18  LIG A   1       6.700  -6.526   7.067 +0.00 +0.00    -0.750 OA 
DOCKED: ATOM     27 O19  LIG A   1       8.450  -6.191   9.066 +0.00 -0.00    -0.750 OA 
DOCKED: ATOM     28 V9   LIG A   1       7.665  -4.794   8.220 +0.00 +0.00    +1.500 V  
DOCKED: ATOM     29 V10  LIG A   1       8.550  -6.315   5.691 +0.01 -0.00    +1.500 V  
DOCKED: ATOM     30 O20  LIG A   1       9.205  -7.538   6.892 +0.00 +0.00    -0.750 OA 
DOCKED: ATOM     31 O21  LIG A   1       7.515  -7.885   4.926 +0.00 +0.00    -0.750 OA 
DOCKED: ATOM     32 O22  LIG A   1       4.957  -6.933   5.176 +0.01 +0.01    -0.750 OA 
DOCKED: ATOM     33 O23  LIG A   1       8.819  -4.906   6.750 +0.00 +0.00    -0.750 OA 
DOCKED: ATOM     34 O24  LIG A   1       8.235  -3.516   8.993 +0.00 -0.00    -0.800 OA 
DOCKED: ATOM     35 O25  LIG A   1       9.688  -6.179   4.581 +0.00 +0.00    -0.800 OA 
DOCKED: ATOM     36 O26  LIG A   1       4.603  -8.085   7.343 +0.00 -0.00    -0.750 OA 
DOCKED: ATOM     37 O27  LIG A   1       5.442  -9.626   5.243 +0.00 +0.00    -0.800 OA 
DOCKED: ATOM     38 O28  LIG A   1       3.857  -6.718   9.556 +0.00 -0.00    -0.750 OA 
DOCKED: ENDROOT
DOCKED: TORSDOF 0
DOCKED: TER
DOCKED: ENDMDL
________________________________________________________________________________


    FINAL DOCKED STATE:
    ________________________


Run:   18 / 20
Time taken for this run:   0.006s

DOCKED: MODEL        18
DOCKED: USER    Run = 18
DOCKED: USER
DOCKED: USER    Estimated Free Energy of Binding    =  +0.41 kcal/mol  [=(1)+(2)+(3)-(4)]
DOCKED: USER
DOCKED: USER    (1) Final Intermolecular Energy     =  +0.41 kcal/mol
DOCKED: USER        vdW + Hbond + desolv Energy     =  +0.38 kcal/mol
DOCKED: USER        Electrostatic Energy            =  +0.03 kcal/mol
DOCKED: USER        Moving Ligand-Fixed Receptor    =  +0.41 kcal/mol
DOCKED: USER        Moving Ligand-Moving Receptor   =  +0.00 kcal/mol
DOCKED: USER    (2) Final Total Internal Energy     =  +0.00 kcal/mol
DOCKED: USER    (3) Torsional Free Energy           =  +0.00 kcal/mol
DOCKED: USER    (4) Unbound System's Energy         =  +0.00 kcal/mol
DOCKED: USER
DOCKED: USER
DOCKED: USER                              x       y       z     vdW  Elec       q    Type
DOCKED: USER                           _______ _______ _______ _____ _____    ______ ____
DOCKED: ROOT
DOCKED: ATOM      1 V1   LIG A   1      -6.660   1.640  -5.936 +0.07 -0.00    +1.500 V  
DOCKED: ATOM      2 V2   LIG A   1      -5.003   2.860  -8.245 +0.01 -0.02    +1.500 V  
DOCKED: ATOM      3 V3   LIG A   1      -5.361   4.421  -5.599 +0.06 -0.01    +1.500 V  
DOCKED: ATOM      4 V4   LIG A   1      -8.463   4.144  -5.679 +0.01 +0.00    +1.500 V  
DOCKED: ATOM      5 V5   LIG A   1      -8.303   2.595  -8.337 +0.00 -0.00    +1.500 V  
DOCKED: ATOM      6 O1   LIG A   1      -6.479   0.288  -5.093 +0.01 +0.00    -0.800 OA 
DOCKED: ATOM      7 O2   LIG A   1      -5.162   1.508  -7.177 +0.02 +0.01    -0.750 OA 
DOCKED: ATOM      8 O3   LIG A   1      -5.372   2.881  -4.925 +0.04 +0.00    -0.750 OA 
DOCKED: ATOM      9 O4   LIG A   1      -7.957   2.553  -4.976 +0.01 -0.01    -0.750 OA 
DOCKED: ATOM     10 O5   LIG A   1      -7.788   1.196  -7.267 +0.01 +0.00    -0.750 OA 
DOCKED: ATOM     11 O6   LIG A   1      -6.696   3.665  -7.061 +0.00 +0.00    -0.750 OA 
DOCKED: ATOM     12 O7   LIG A   1      -5.379   4.717  -9.045 +0.00 +0.00    -0.750 OA 
DOCKED: ATOM     13 O8   LIG A   1      -4.093   4.021  -7.043 +0.01 +0.01    -0.750 OA 
DOCKED: ATOM     14 O9   LIG A   1      -6.558   2.257  -9.317 +0.00 +0.00    -0.750 OA 
DOCKED: ATOM     15 O10  LIG A   1      -9.362   3.340  -7.111 +0.00 +0.00    -0.750 OA 
DOCKED: ATOM     16 O11  LIG A   1      -3.839   2.464  -9.280 +0.01 +0.01    -0.800 OA 
DOCKED: ATOM     17 O12  LIG A   1      -4.276   5.383  -4.711 +0.03 +0.00    -0.750 OA 
DOCKED: ATOM     18 O13  LIG A   1      -9.674   4.602  -4.741 +0.00 -0.00    -0.800 OA 
DOCKED: ATOM     19 O14  LIG A   1      -9.324   1.957  -9.385 +0.00 +0.00    -0.800 OA 
DOCKED: ATOM     20 V6   LIG A   1      -6.999   5.352  -8.294 +0.00 -0.00    +1.500 V  
DOCKED: ATOM     21 O15  LIG A   1      -6.987   6.892  -8.969 +0.00 +0.00    -0.750 OA 
DOCKED: ATOM     22 V7   LIG A   1      -5.699   8.133  -7.957 +0.00 -0.00    +1.500 V  
DOCKED: ATOM     23 O16  LIG A   1      -5.880   9.485  -8.801 +0.00 +0.00    -0.800 OA 
DOCKED: ATOM     24 O17  LIG A   1      -7.198   8.265  -6.716 +0.00 +0.00    -0.750 OA 
DOCKED: ATOM     25 V8   LIG A   1      -7.357   6.913  -5.648 +0.00 -0.00    +1.500 V  
DOCKED: ATOM     26 O18  LIG A   1      -5.664   6.108  -6.833 +0.00 +0.00    -0.750 OA 
DOCKED: ATOM     27 O19  LIG A   1      -4.403   7.220  -8.917 +0.00 +0.00    -0.750 OA 
DOCKED: ATOM     28 V9   LIG A   1      -3.896   5.629  -8.214 +0.01 -0.01    +1.500 V  
DOCKED: ATOM     29 V10  LIG A   1      -4.056   7.178  -5.556 +0.03 -0.01    +1.500 V  
DOCKED: ATOM     30 O20  LIG A   1      -4.572   8.577  -6.627 +0.00 +0.00    -0.750 OA 
DOCKED: ATOM     31 O21  LIG A   1      -5.802   7.516  -4.576 +0.00 +0.00    -0.750 OA 
DOCKED: ATOM     32 O22  LIG A   1      -6.981   5.056  -4.848 +0.01 -0.00    -0.750 OA 
DOCKED: ATOM     33 O23  LIG A   1      -2.997   6.433  -6.783 +0.01 +0.01    -0.750 OA 
DOCKED: ATOM     34 O24  LIG A   1      -2.686   5.171  -9.152 +0.01 +0.01    -0.800 OA 
DOCKED: ATOM     35 O25  LIG A   1      -3.035   7.816  -4.509 +0.02 +0.00    -0.800 OA 
DOCKED: ATOM     36 O26  LIG A   1      -8.267   5.752  -6.850 +0.00 +0.00    -0.750 OA 
DOCKED: ATOM     37 O27  LIG A   1      -8.519   7.309  -4.614 +0.00 -0.00    -0.800 OA 
DOCKED: ATOM     38 O28  LIG A   1      -8.082   4.391  -9.182 +0.00 +0.00    -0.750 OA 
DOCKED: ENDROOT
DOCKED: TORSDOF 0
DOCKED: TER
DOCKED: ENDMDL
________________________________________________________________________________


    FINAL DOCKED STATE:
    ________________________


Run:   19 / 20
Time taken for this run:   0.006s

DOCKED: MODEL        19
DOCKED: USER    Run = 19
DOCKED: USER
DOCKED: USER    Estimated Free Energy of Binding    =  +0.32 kcal/mol  [=(1)+(2)+(3)-(4)]
DOCKED: USER
DOCKED: USER    (1) Final Intermolecular Energy     =  +0.32 kcal/mol
DOCKED: USER        vdW + Hbond + desolv Energy     =  +0.30 kcal/mol
DOCKED: USER        Electrostatic Energy            =  +0.03 kcal/mol
DOCKED: USER        Moving Ligand-Fixed Receptor    =  +0.32 kcal/mol
DOCKED: USER        Moving Ligand-Moving Receptor   =  +0.00 kcal/mol
DOCKED: USER    (2) Final Total Internal Energy     =  +0.00 kcal/mol
DOCKED: USER    (3) Torsional Free Energy           =  +0.00 kcal/mol
DOCKED: USER    (4) Unbound System's Energy         =  +0.00 kcal/mol
DOCKED: USER
DOCKED: USER
DOCKED: USER                              x       y       z     vdW  Elec       q    Type
DOCKED: USER                           _______ _______ _______ _____ _____    ______ ____
DOCKED: ROOT
DOCKED: ATOM      1 V1   LIG A   1      -4.671   8.629  -8.271 +0.00 -0.00    +1.500 V  
DOCKED: ATOM      2 V2   LIG A   1      -3.470   5.803  -7.897 +0.02 -0.02    +1.500 V  
DOCKED: ATOM      3 V3   LIG A   1      -6.498   6.144  -8.424 +0.00 -0.00    +1.500 V  
DOCKED: ATOM      4 V4   LIG A   1      -6.827   8.186  -6.093 +0.00 -0.00    +1.500 V  
DOCKED: ATOM      5 V5   LIG A   1      -3.834   7.953  -5.403 +0.02 -0.01    +1.500 V  
DOCKED: ATOM      6 O1   LIG A   1      -4.372   9.781  -9.346 +0.00 +0.00    -0.800 OA 
DOCKED: ATOM      7 O2   LIG A   1      -3.398   7.260  -8.828 +0.00 +0.00    -0.750 OA 
DOCKED: ATOM      8 O3   LIG A   1      -5.987   7.464  -9.332 +0.00 +0.00    -0.750 OA 
DOCKED: ATOM      9 O4   LIG A   1      -6.210   9.236  -7.435 +0.00 +0.00    -0.750 OA 
DOCKED: ATOM     10 O5   LIG A   1      -3.610   9.030  -6.872 +0.00 +0.00    -0.750 OA 
DOCKED: ATOM     11 O6   LIG A   1      -5.175   6.821  -6.912 +0.00 +0.00    -0.750 OA 
DOCKED: ATOM     12 O7   LIG A   1      -4.165   4.456  -6.508 +0.01 +0.01    -0.750 OA 
DOCKED: ATOM     13 O8   LIG A   1      -4.944   5.005  -8.797 +0.00 +0.01    -0.750 OA 
DOCKED: ATOM     14 O9   LIG A   1      -2.573   6.683  -6.363 +0.01 +0.01    -0.750 OA 
DOCKED: ATOM     15 O10  LIG A   1      -5.415   8.641  -4.951 +0.00 +0.00    -0.750 OA 
DOCKED: ATOM     16 O11  LIG A   1      -2.237   4.903  -8.401 +0.01 +0.02    -0.800 OA 
DOCKED: ATOM     17 O12  LIG A   1      -7.579   5.235  -9.368 +0.00 +0.00    -0.750 OA 
DOCKED: ATOM     18 O13  LIG A   1      -8.037   9.031  -5.480 +0.00 +0.00    -0.800 OA 
DOCKED: ATOM     19 O14  LIG A   1      -2.835   8.540  -4.306 +0.02 +0.00    -0.800 OA 
DOCKED: ATOM     20 V6   LIG A   1      -5.429   5.352  -5.417 +0.04 -0.00    +1.500 V  
DOCKED: ATOM     21 O15  LIG A   1      -5.938   4.033  -4.508 +0.03 -0.00    -0.750 OA 
DOCKED: ATOM     22 V7   LIG A   1      -7.256   2.868  -5.571 +0.04 +0.00    +1.500 V  
DOCKED: ATOM     23 O16  LIG A   1      -7.554   1.716  -4.495 +0.01 -0.01    -0.800 OA 
DOCKED: ATOM     24 O17  LIG A   1      -8.529   4.237  -5.013 +0.00 -0.00    -0.750 OA 
DOCKED: ATOM     25 V8   LIG A   1      -8.457   5.694  -5.943 +0.00 +0.00    +1.500 V  
DOCKED: ATOM     26 O18  LIG A   1      -6.751   4.676  -6.928 +0.00 +0.00    -0.750 OA 
DOCKED: ATOM     27 O19  LIG A   1      -5.717   2.261  -6.406 +0.02 +0.01    -0.750 OA 
DOCKED: ATOM     28 V9   LIG A   1      -5.099   3.311  -7.747 +0.02 -0.02    +1.500 V  
DOCKED: ATOM     29 V10  LIG A   1      -8.093   3.544  -8.437 +0.00 -0.00    +1.500 V  
DOCKED: ATOM     30 O20  LIG A   1      -8.316   2.467  -6.969 +0.00 +0.00    -0.750 OA 
DOCKED: ATOM     31 O21  LIG A   1      -9.353   4.814  -7.478 +0.00 +0.00    -0.750 OA 
DOCKED: ATOM     32 O22  LIG A   1      -7.762   7.041  -7.333 +0.00 +0.00    -0.750 OA 
DOCKED: ATOM     33 O23  LIG A   1      -6.511   2.856  -8.890 +0.00 +0.00    -0.750 OA 
DOCKED: ATOM     34 O24  LIG A   1      -3.889   2.465  -8.361 +0.01 +0.02    -0.800 OA 
DOCKED: ATOM     35 O25  LIG A   1      -9.091   2.956  -9.534 +0.00 +0.00    -0.800 OA 
DOCKED: ATOM     36 O26  LIG A   1      -6.983   6.492  -5.043 +0.00 +0.00    -0.750 OA 
DOCKED: ATOM     37 O27  LIG A   1      -9.688   6.593  -5.440 +0.00 -0.00    -0.800 OA 
DOCKED: ATOM     38 O28  LIG A   1      -4.347   6.262  -4.473 +0.02 +0.00    -0.750 OA 
DOCKED: ENDROOT
DOCKED: TORSDOF 0
DOCKED: TER
DOCKED: ENDMDL
________________________________________________________________________________


    FINAL DOCKED STATE:
    ________________________


Run:   20 / 20
Time taken for this run:   0.006s

DOCKED: MODEL        20
DOCKED: USER    Run = 20
DOCKED: USER
DOCKED: USER    Estimated Free Energy of Binding    =  +0.35 kcal/mol  [=(1)+(2)+(3)-(4)]
DOCKED: USER
DOCKED: USER    (1) Final Intermolecular Energy     =  +0.35 kcal/mol
DOCKED: USER        vdW + Hbond + desolv Energy     =  +0.33 kcal/mol
DOCKED: USER        Electrostatic Energy            =  +0.02 kcal/mol
DOCKED: USER        Moving Ligand-Fixed Receptor    =  +0.35 kcal/mol
DOCKED: USER        Moving Ligand-Moving Receptor   =  +0.00 kcal/mol
DOCKED: USER    (2) Final Total Internal Energy     =  +0.00 kcal/mol
DOCKED: USER    (3) Torsional Free Energy           =  +0.00 kcal/mol
DOCKED: USER    (4) Unbound System's Energy         =  +0.00 kcal/mol
DOCKED: USER
DOCKED: USER
DOCKED: USER                              x       y       z     vdW  Elec       q    Type
DOCKED: USER                           _______ _______ _______ _____ _____    ______ ____
DOCKED: ROOT
DOCKED: ATOM      1 V1   LIG A   1      -5.867   3.808  -7.299 +0.02 -0.01    +1.500 V  
DOCKED: ATOM      2 V2   LIG A   1      -5.959   6.897  -7.418 +0.00 -0.00    +1.500 V  
DOCKED: ATOM      3 V3   LIG A   1      -5.839   5.453  -4.686 +0.05 +0.00    +1.500 V  
DOCKED: ATOM      4 V4   LIG A   1      -8.280   3.639  -5.366 +0.02 +0.01    +1.500 V  
DOCKED: ATOM      5 V5   LIG A   1      -8.571   4.985  -8.122 +0.00 -0.00    +1.500 V  
DOCKED: ATOM      6 O1   LIG A   1      -4.814   2.749  -7.885 +0.01 +0.01    -0.800 OA 
DOCKED: ATOM      7 O2   LIG A   1      -5.092   5.486  -7.920 +0.00 +0.01    -0.750 OA 
DOCKED: ATOM      8 O3   LIG A   1      -4.931   4.329  -5.546 +0.03 +0.01    -0.750 OA 
DOCKED: ATOM      9 O4   LIG A   1      -6.918   2.767  -6.182 +0.01 +0.00    -0.750 OA 
DOCKED: ATOM     10 O5   LIG A   1      -7.135   3.935  -8.571 +0.00 +0.00    -0.750 OA 
DOCKED: ATOM     11 O6   LIG A   1      -7.197   5.428  -6.313 +0.00 +0.00    -0.750 OA 
DOCKED: ATOM     12 O7   LIG A   1      -7.365   8.023  -6.427 +0.00 +0.00    -0.750 OA 
DOCKED: ATOM     13 O8   LIG A   1      -5.221   7.035  -5.670 +0.00 +0.00    -0.750 OA 
DOCKED: ATOM     14 O9   LIG A   1      -7.404   6.533  -8.727 +0.00 +0.00    -0.750 OA 
DOCKED: ATOM     15 O10  LIG A   1      -9.252   3.820  -6.957 +0.00 +0.00    -0.750 OA 
DOCKED: ATOM     16 O11  LIG A   1      -5.263   8.130  -8.178 +0.00 +0.00    -0.800 OA 
DOCKED: ATOM     17 O12  LIG A   1      -5.001   5.830  -3.256 +0.04 -0.00    -0.750 OA 
DOCKED: ATOM     18 O13  LIG A   1      -9.079   2.475  -4.618 +0.01 -0.01    -0.800 OA 
DOCKED: ATOM     19 O14  LIG A   1      -9.557   4.891  -9.374 +0.00 +0.00    -0.800 OA 
DOCKED: ATOM     20 V6   LIG A   1      -8.647   6.833  -5.696 +0.00 +0.00    +1.500 V  
DOCKED: ATOM     21 O15  LIG A   1      -9.555   7.958  -4.837 +0.00 -0.00    -0.750 OA 
DOCKED: ATOM     22 V7   LIG A   1      -8.619   8.478  -3.083 +0.00 -0.00    +1.500 V  
DOCKED: ATOM     23 O16  LIG A   1      -9.673   9.537  -2.499 +0.00 +0.00    -0.800 OA 
DOCKED: ATOM     24 O17  LIG A   1      -9.394   6.799  -2.463 +0.00 -0.00    -0.750 OA 
DOCKED: ATOM     25 V8   LIG A   1      -8.527   5.389  -2.964 +0.01 +0.01    +1.500 V  
DOCKED: ATOM     26 O18  LIG A   1      -7.289   6.859  -4.071 +0.00 -0.00    -0.750 OA 
DOCKED: ATOM     27 O19  LIG A   1      -7.568   9.519  -4.200 +0.00 +0.00    -0.750 OA 
DOCKED: ATOM     28 V9   LIG A   1      -6.206   8.646  -5.016 +0.00 -0.00    +1.500 V  
DOCKED: ATOM     29 V10  LIG A   1      -5.915   7.301  -2.260 +0.05 -0.01    +1.500 V  
DOCKED: ATOM     30 O20  LIG A   1      -7.351   8.351  -1.812 +0.00 +0.00    -0.750 OA 
DOCKED: ATOM     31 O21  LIG A   1      -7.082   5.753  -1.656 +0.02 -0.01    -0.750 OA 
DOCKED: ATOM     32 O22  LIG A   1      -7.121   4.263  -3.956 +0.02 -0.01    -0.750 OA 
DOCKED: ATOM     33 O23  LIG A   1      -5.235   8.466  -3.427 +0.01 +0.00    -0.750 OA 
DOCKED: ATOM     34 O24  LIG A   1      -5.407   9.811  -5.764 +0.00 +0.00    -0.800 OA 
DOCKED: ATOM     35 O25  LIG A   1      -4.930   7.396  -1.009 +0.02 +0.02    -0.800 OA 
DOCKED: ATOM     36 O26  LIG A   1      -9.266   5.251  -4.712 +0.00 -0.00    -0.750 OA 
DOCKED: ATOM     37 O27  LIG A   1      -9.222   4.157  -2.205 +0.01 -0.01    -0.800 OA 
DOCKED: ATOM     38 O28  LIG A   1      -9.484   6.456  -7.126 +0.00 +0.00    -0.750 OA 
DOCKED: ENDROOT
DOCKED: TORSDOF 0
DOCKED: TER
DOCKED: ENDMDL
________________________________________________________________________________


    CLUSTERING HISTOGRAM
    ____________________


________________________________________________________________________________
     |           |     |           |     |
Clus | Lowest    | Run | Mean      | Num | Histogram
-ter | Binding   |     | Binding   | in  |
Rank | Energy    |     | Energy    | Clus|    5    10   15   20   25   30   35
_____|___________|_____|___________|_____|____:____|____:____|____:____|____:___
   1 |     +0.26 |  10 |     +0.33 |  11 |###########
   2 |     +0.32 |   4 |     +0.34 |   3 |###
   3 |     +0.32 |  19 |     +0.39 |   3 |###
   4 |     +0.35 |  20 |     +0.35 |   1 |#
   5 |     +0.36 |  11 |     +0.37 |   2 |##
_____|___________|_____|___________|_____|______________________________________


    RMSD TABLE
    __________


_______________________________________________________________________
     |      |      |           |         |                 |
Rank | Sub- | Run  | Binding   | Cluster | Reference       | Grep
     | Rank |      | Energy    | RMSD    | RMSD            | Pattern
_____|______|______|___________|_________|_________________|___________
   1      1     10       +0.26      0.00      6.30           RANKING
   1      2      7       +0.28      1.19      6.66           RANKING
   1      3     13       +0.30      1.42      6.24           RANKING
   1      4      9       +0.31      1.36      6.49           RANKING
   1      5      5       +0.32      1.34      6.27           RANKING
   1      6      6       +0.32      1.21      6.03           RANKING
   1      7     16       +0.32      1.56      6.54           RANKING
   1      8      8       +0.35      1.52      6.51           RANKING
   1      9      2       +0.37      1.69      6.16           RANKING
   1     10     15       +0.38      1.39      6.07           RANKING
   1     11     14       +0.40      1.42      6.13           RANKING
   2      1      4       +0.32      0.00      5.62           RANKING
   2      2      3       +0.35      1.32      5.74           RANKING
   2      3      1       +0.36      1.20      5.77           RANKING
   3      1     19       +0.32      0.00      8.43           RANKING
   3      2     18       +0.41      1.15      8.68           RANKING
   3      3     12       +0.43      1.25      8.13           RANKING
   4      1     20       +0.35      0.00      8.48           RANKING
   5      1     11       +0.36      0.00     10.75           RANKING
   5      2     17       +0.38      1.30     10.92           RANKING

Run time 0.120 sec
Idle time 0.364 sec
