REMARK  Name = vina_1RUV_redock.pdbqt
REMARK  2 active torsions:
REMARK  status: ('A' for Active; 'I' for Inactive)
REMARK    1  A    between atoms: N1_1  and  C1'_9
REMARK    2  A    between atoms: C4'_13  and  C5'_16
REMARK                            x       y       z     vdW  Elec       q    Type
REMARK                         _______ _______ _______ _____ _____    ______ ____
ROOT
ATOM      1 C1'  UVC A 125      37.158  12.543  13.186  0.00  0.00    +0.000 C 
ATOM      2 C2'  UVC A 125      37.097  11.319  14.105  0.00  0.00    +0.000 C 
ATOM      3 O2'  UVC A 125      37.878  11.786  15.159  0.00  0.00    -0.750 OA
ATOM      4 C3'  UVC A 125      37.837  10.327  13.268  0.00  0.00    +0.000 C 
ATOM      5 C4'  UVC A 125      38.865  11.072  12.486  0.00  0.00    +0.000 C 
ATOM      6 O3'  UVC A 125      38.459   9.548  14.245  0.00  0.00    -0.750 OA
ATOM      7 O4'  UVC A 125      38.284  12.433  12.198  0.00  0.00    +0.000 OA
ATOM      8 V    UVC A 125      38.467  10.156  16.150  0.00  0.00    +1.500 Zn
ATOM      9 O1V  UVC A 125      37.145   9.808  17.287  0.00  0.00    -0.750 OA
ATOM     10 O2V  UVC A 125      39.372  10.779  16.918  0.00  0.00    -0.750 OA
ATOM     11 O3V  UVC A 125      39.184   8.383  16.127  0.00  0.00    -0.750 OA
ENDROOT
BRANCH   1  12
ATOM     12 N1   UVC A 125      35.980  12.594  12.297  0.00  0.00    +0.000 N 
ATOM     13 C2   UVC A 125      34.847  13.307  12.959  0.00  0.00    +0.000 C 
ATOM     14 N3   UVC A 125      33.824  13.329  12.103  0.00  0.00    +0.000 NA
ATOM     15 C4   UVC A 125      33.592  12.888  10.890  0.00  0.00    +0.000 C 
ATOM     16 C5   UVC A 125      34.763  12.164  10.313  0.00  0.00    +0.000 C 
ATOM     17 C6   UVC A 125      35.847  12.117  11.098  0.00  0.00    +0.000 C 
ATOM     18 O2   UVC A 125      35.039  13.695  13.992  0.00  0.00    +0.000 OA
ATOM     19 O4   UVC A 125      32.510  12.989  10.236  0.00  0.00    +0.000 OA
ENDBRANCH   1  12
BRANCH   5  20
ATOM     20 C5'  UVC A 125      39.478  10.719  11.107  0.00  0.00    +0.000 C 
ATOM     21 O5'  UVC A 125      38.384  10.320  10.343  0.00  0.00    +0.000 OA
ENDBRANCH   5  20
TORSDOF 2
