REMARK  Name = vina_1RUV_redock.pdbqt
REMARK  2 active torsions:
REMARK  status: ('A' for Active; 'I' for Inactive)
REMARK    1  A    between atoms: N1_1  and  C1'_9
REMARK    2  A    between atoms: C4'_13  and  C5'_16
REMARK                            x       y       z     vdW  Elec       q    Type
REMARK                         _______ _______ _______ _____ _____    ______ ____
ROOT
ATOM      1 C1'  UVC A 125      32.314  12.091   7.483  0.00  0.00    +0.000 C 
ATOM      2 C2'  UVC A 125      33.752  12.156   8.006  0.00  0.00    +0.000 C 
ATOM      3 O2'  UVC A 125      33.896  10.840   8.438  0.00  0.00    -0.750 OA
ATOM      4 C3'  UVC A 125      33.572  13.096   9.153  0.00  0.00    +0.000 C 
ATOM      5 C4'  UVC A 125      32.204  12.880   9.704  0.00  0.00    +0.000 C 
ATOM      6 O3'  UVC A 125      34.525  12.621  10.055  0.00  0.00    -0.750 OA
ATOM      7 O4'  UVC A 125      31.326  12.494   8.540  0.00  0.00    +0.000 OA
ATOM      8 V    UVC A 125      35.422  10.865   9.726  0.00  0.00    +1.500 Zn
ATOM      9 O1V  UVC A 125      36.876  10.689   8.717  0.00  0.00    -0.750 OA
ATOM     10 O2V  UVC A 125      35.228   9.624  10.197  0.00  0.00    -0.750 OA
ATOM     11 O3V  UVC A 125      36.309  11.674  11.215  0.00  0.00    -0.750 OA
ENDROOT
BRANCH   1  12
ATOM     12 N1   UVC A 125      32.083  13.119   6.448  0.00  0.00    +0.000 N 
ATOM     13 C2   UVC A 125      32.461  12.606   5.098  0.00  0.00    +0.000 C 
ATOM     14 N3   UVC A 125      32.219  13.572   4.211  0.00  0.00    +0.000 NA
ATOM     15 C4   UVC A 125      31.761  14.801   4.249  0.00  0.00    +0.000 C 
ATOM     16 C5   UVC A 125      31.434  15.246   5.636  0.00  0.00    +0.000 C 
ATOM     17 C6   UVC A 125      31.624  14.324   6.589  0.00  0.00    +0.000 C 
ATOM     18 O2   UVC A 125      32.845  11.554   5.055  0.00  0.00    +0.000 OA
ATOM     19 O4   UVC A 125      31.625  15.593   3.268  0.00  0.00    +0.000 OA
ENDBRANCH   1  12
BRANCH   5  20
ATOM     20 C5'  UVC A 125      31.284  13.888  10.440  0.00  0.00    +0.000 C 
ATOM     21 O5'  UVC A 125      31.401  15.059   9.695  0.00  0.00    +0.000 OA
ENDBRANCH   5  20
TORSDOF 2
