REMARK  Name = vina_1RUV_redock.pdbqt
REMARK  2 active torsions:
REMARK  status: ('A' for Active; 'I' for Inactive)
REMARK    1  A    between atoms: N1_1  and  C1'_9
REMARK    2  A    between atoms: C4'_13  and  C5'_16
REMARK                            x       y       z     vdW  Elec       q    Type
REMARK                         _______ _______ _______ _____ _____    ______ ____
ROOT
ATOM      1 C1'  UVC A 125      35.113  11.689   8.972  0.00  0.00    +0.000 C 
ATOM      2 C2'  UVC A 125      35.311  10.381   9.744  0.00  0.00    +0.000 C 
ATOM      3 O2'  UVC A 125      36.693  10.253   9.623  0.00  0.00    -0.750 OA
ATOM      4 C3'  UVC A 125      34.589   9.433   8.844  0.00  0.00    +0.000 C 
ATOM      5 C4'  UVC A 125      34.748   9.927   7.446  0.00  0.00    +0.000 C 
ATOM      6 O3'  UVC A 125      35.329   8.264   9.019  0.00  0.00    -0.750 OA
ATOM      7 O4'  UVC A 125      34.806  11.431   7.525  0.00  0.00    +0.000 OA
ATOM      8 V    UVC A 125      37.083   8.327   9.978  0.00  0.00    +1.500 Zn
ATOM      9 O1V  UVC A 125      37.230   8.207  11.746  0.00  0.00    -0.750 OA
ATOM     10 O2V  UVC A 125      38.360   8.366   9.569  0.00  0.00    -0.750 OA
ATOM     11 O3V  UVC A 125      36.674   6.482   9.684  0.00  0.00    -0.750 OA
ENDROOT
BRANCH   1  12
ATOM     12 N1   UVC A 125      33.890  12.385   9.420  0.00  0.00    +0.000 N 
ATOM     13 C2   UVC A 125      34.179  13.268  10.589  0.00  0.00    +0.000 C 
ATOM     14 N3   UVC A 125      33.042  13.873  10.935  0.00  0.00    +0.000 NA
ATOM     15 C4   UVC A 125      31.799  13.866  10.518  0.00  0.00    +0.000 C 
ATOM     16 C5   UVC A 125      31.588  12.938   9.367  0.00  0.00    +0.000 C 
ATOM     17 C6   UVC A 125      32.688  12.306   8.937  0.00  0.00    +0.000 C 
ATOM     18 O2   UVC A 125      35.241  13.287  10.946  0.00  0.00    +0.000 OA
ATOM     19 O4   UVC A 125      30.826  14.513  11.011  0.00  0.00    +0.000 OA
ENDBRANCH   1  12
BRANCH   5  20
ATOM     20 C5'  UVC A 125      33.798   9.735   6.236  0.00  0.00    +0.000 C 
ATOM     21 O5'  UVC A 125      32.530   9.965   6.762  0.00  0.00    +0.000 OA
ENDBRANCH   5  20
TORSDOF 2
