REMARK  Name = vina_1RUV_redock.pdbqt
REMARK  2 active torsions:
REMARK  status: ('A' for Active; 'I' for Inactive)
REMARK    1  A    between atoms: N1_1  and  C1'_9
REMARK    2  A    between atoms: C4'_13  and  C5'_16
REMARK                            x       y       z     vdW  Elec       q    Type
REMARK                         _______ _______ _______ _____ _____    ______ ____
ROOT
ATOM      1 C1'  UVC A 125      31.032  13.389   6.538  0.00  0.00    +0.000 C 
ATOM      2 C2'  UVC A 125      32.556  13.302   6.407  0.00  0.00    +0.000 C 
ATOM      3 O2'  UVC A 125      32.679  11.951   6.091  0.00  0.00    -0.750 OA
ATOM      4 C3'  UVC A 125      32.956  13.577   7.819  0.00  0.00    +0.000 C 
ATOM      5 C4'  UVC A 125      31.891  13.031   8.706  0.00  0.00    +0.000 C 
ATOM      6 O3'  UVC A 125      34.112  12.804   7.936  0.00  0.00    -0.750 OA
ATOM      7 O4'  UVC A 125      30.590  13.176   7.958  0.00  0.00    +0.000 OA
ATOM      8 V    UVC A 125      34.573  11.477   6.513  0.00  0.00    +1.500 Zn
ATOM      9 O1V  UVC A 125      35.489  11.900   5.048  0.00  0.00    -0.750 OA
ATOM     10 O2V  UVC A 125      34.413  10.150   6.398  0.00  0.00    -0.750 OA
ATOM     11 O3V  UVC A 125      36.063  11.551   7.709  0.00  0.00    -0.750 OA
ENDROOT
BRANCH   1  12
ATOM     12 N1   UVC A 125      30.558  14.763   6.278  0.00  0.00    +0.000 N 
ATOM     13 C2   UVC A 125      30.315  14.973   4.820  0.00  0.00    +0.000 C 
ATOM     14 N3   UVC A 125      29.880  16.223   4.655  0.00  0.00    +0.000 NA
ATOM     15 C4   UVC A 125      29.638  17.254   5.429  0.00  0.00    +0.000 C 
ATOM     16 C5   UVC A 125      29.933  16.970   6.865  0.00  0.00    +0.000 C 
ATOM     17 C6   UVC A 125      30.352  15.724   7.125  0.00  0.00    +0.000 C 
ATOM     18 O2   UVC A 125      30.511  14.095   4.152  0.00  0.00    +0.000 OA
ATOM     19 O4   UVC A 125      29.240  18.402   5.067  0.00  0.00    +0.000 OA
ENDBRANCH   1  12
BRANCH   5  20
ATOM     20 C5'  UVC A 125      31.468  13.506  10.120  0.00  0.00    +0.000 C 
ATOM     21 O5'  UVC A 125      31.442  14.895  10.016  0.00  0.00    +0.000 OA
ENDBRANCH   5  20
TORSDOF 2
