REMARK  Name = vina_1RUV_redock.pdbqt
REMARK  2 active torsions:
REMARK  status: ('A' for Active; 'I' for Inactive)
REMARK    1  A    between atoms: N1_1  and  C1'_9
REMARK    2  A    between atoms: C4'_13  and  C5'_16
REMARK                            x       y       z     vdW  Elec       q    Type
REMARK                         _______ _______ _______ _____ _____    ______ ____
ROOT
ATOM      1 C1'  UVC A 125      30.730  13.835   6.773  0.00  0.00    +0.000 C 
ATOM      2 C2'  UVC A 125      30.643  15.297   6.323  0.00  0.00    +0.000 C 
ATOM      3 O2'  UVC A 125      29.268  15.391   6.121  0.00  0.00    -0.750 OA
ATOM      4 C3'  UVC A 125      31.386  15.217   5.030  0.00  0.00    +0.000 C 
ATOM      5 C4'  UVC A 125      31.141  13.866   4.450  0.00  0.00    +0.000 C 
ATOM      6 O3'  UVC A 125      30.726  16.184   4.270  0.00  0.00    -0.750 OA
ATOM      7 O4'  UVC A 125      30.994  12.918   5.613  0.00  0.00    +0.000 OA
ATOM      8 V    UVC A 125      29.012  16.973   4.930  0.00  0.00    +1.500 Zn
ATOM      9 O1V  UVC A 125      28.942  18.369   6.030  0.00  0.00    -0.750 OA
ATOM     10 O2V  UVC A 125      27.719  16.736   4.659  0.00  0.00    -0.750 OA
ATOM     11 O3V  UVC A 125      29.521  17.967   3.377  0.00  0.00    -0.750 OA
ENDROOT
BRANCH   1  12
ATOM     12 N1   UVC A 125      31.924  13.612   7.612  0.00  0.00    +0.000 N 
ATOM     13 C2   UVC A 125      31.627  13.902   9.046  0.00  0.00    +0.000 C 
ATOM     14 N3   UVC A 125      32.738  13.671   9.748  0.00  0.00    +0.000 NA
ATOM     15 C4   UVC A 125      33.962  13.280   9.485  0.00  0.00    +0.000 C 
ATOM     16 C5   UVC A 125      34.183  13.039   8.028  0.00  0.00    +0.000 C 
ATOM     17 C6   UVC A 125      33.108  13.223   7.250  0.00  0.00    +0.000 C 
ATOM     18 O2   UVC A 125      30.581  14.228   9.281  0.00  0.00    +0.000 OA
ATOM     19 O4   UVC A 125      34.912  13.141  10.313  0.00  0.00    +0.000 OA
ENDBRANCH   1  12
BRANCH   5  20
ATOM     20 C5'  UVC A 125      32.052  13.035   3.511  0.00  0.00    +0.000 C 
ATOM     21 O5'  UVC A 125      33.324  13.179   4.058  0.00  0.00    +0.000 OA
ENDBRANCH   5  20
TORSDOF 2
