REMARK  Name = vina_1RUV_redock.pdbqt
REMARK  2 active torsions:
REMARK  status: ('A' for Active; 'I' for Inactive)
REMARK    1  A    between atoms: N1_1  and  C1'_9
REMARK    2  A    between atoms: C4'_13  and  C5'_16
REMARK                            x       y       z     vdW  Elec       q    Type
REMARK                         _______ _______ _______ _____ _____    ______ ____
ROOT
ATOM      1 C1'  UVC A 125      31.679  13.431   5.848  0.00  0.00    +0.000 C 
ATOM      2 C2'  UVC A 125      30.639  12.468   5.267  0.00  0.00    +0.000 C 
ATOM      3 O2'  UVC A 125      31.300  12.098   4.098  0.00  0.00    -0.750 OA
ATOM      4 C3'  UVC A 125      29.524  13.423   4.991  0.00  0.00    +0.000 C 
ATOM      5 C4'  UVC A 125      30.131  14.738   4.639  0.00  0.00    +0.000 C 
ATOM      6 O3'  UVC A 125      28.943  12.852   3.858  0.00  0.00    -0.750 OA
ATOM      7 O4'  UVC A 125      31.409  14.848   5.431  0.00  0.00    +0.000 OA
ATOM      8 V    UVC A 125      29.884  11.376   2.890  0.00  0.00    +1.500 Zn
ATOM      9 O1V  UVC A 125      29.727   9.663   3.340  0.00  0.00    -0.750 OA
ATOM     10 O2V  UVC A 125      30.649  11.332   1.789  0.00  0.00    -0.750 OA
ATOM     11 O3V  UVC A 125      28.146  11.538   2.107  0.00  0.00    -0.750 OA
ENDROOT
BRANCH   1  12
ATOM     12 N1   UVC A 125      31.552  13.520   7.317  0.00  0.00    +0.000 N 
ATOM     13 C2   UVC A 125      32.356  12.453   7.984  0.00  0.00    +0.000 C 
ATOM     14 N3   UVC A 125      32.209  12.595   9.302  0.00  0.00    +0.000 NA
ATOM     15 C4   UVC A 125      31.553  13.402  10.102  0.00  0.00    +0.000 C 
ATOM     16 C5   UVC A 125      30.755  14.419   9.356  0.00  0.00    +0.000 C 
ATOM     17 C6   UVC A 125      30.865  14.365   8.022  0.00  0.00    +0.000 C 
ATOM     18 O2   UVC A 125      32.927  11.764   7.308  0.00  0.00    +0.000 OA
ATOM     19 O4   UVC A 125      31.519  13.357  11.369  0.00  0.00    +0.000 OA
ENDBRANCH   1  12
BRANCH   5  20
ATOM     20 C5'  UVC A 125      29.544  16.160   4.834  0.00  0.00    +0.000 C 
ATOM     21 O5'  UVC A 125      28.998  16.128   6.114  0.00  0.00    +0.000 OA
ENDBRANCH   5  20
TORSDOF 2
