ROOT
HETATM    1 N1   UVC A 125      31.798  13.516   9.280  1.00  0.00    +0.000 N
HETATM    1 C2   UVC A 125      31.400  13.945  10.654  1.00  0.00    +0.000 C
HETATM    1 N3   UVC A 125      32.401  13.643  11.482  1.00  0.00    +0.000 N
HETATM    1 C4   UVC A 125      33.589  13.097  11.375  1.00  0.00    +0.000 C
HETATM    1 C5   UVC A 125      33.920  12.723   9.968  1.00  0.00    +0.000 C
HETATM    1 C6   UVC A 125      32.956  12.969   9.071  1.00  0.00    +0.000 C
HETATM    1 O2   UVC A 125      30.383  14.405  10.756  1.00  0.00    +0.000 OA
HETATM    1 O4   UVC A 125      34.430  12.914  12.306  1.00  0.00    +0.000 OA
HETATM    1 C1'  UVC A 125      30.726  13.809   8.308  1.00  0.00    +0.000 C
HETATM    1 C2'  UVC A 125      30.860  15.233   7.759  1.00  0.00    +0.000 C
HETATM    1 O2'  UVC A 125      29.533  15.467   7.408  1.00  0.00    -0.750 OA
HETATM    1 C3'  UVC A 125      31.710  14.972   6.559  1.00  0.00    +0.000 C
HETATM    1 C4'  UVC A 125      31.362  13.617   6.044  1.00  0.00    +0.000 C
HETATM    1 O3'  UVC A 125      31.249  15.947   5.674  1.00  0.00    -0.750 OA
HETATM    1 O4'  UVC A 125      30.989  12.783   7.243  1.00  0.00    +0.000 OA
HETATM    1 C5'  UVC A 125      32.253  12.619   5.261  1.00  0.00    +0.000 C
HETATM    1 O5'  UVC A 125      33.474  12.659   5.929  1.00  0.00    +0.000 OA
HETATM    1 V    UVC A 125      29.586  16.973   6.098  1.00  0.00    +1.500 Zn
HETATM    1 O1V  UVC A 125      29.579  18.447   7.093  1.00  0.00    -0.750 OA
HETATM    1 O2V  UVC A 125      28.307  16.864   5.708  1.00  0.00    -0.750 OA
HETATM    1 O3V  UVC A 125      30.360  17.782   4.547  1.00  0.00    -0.750 OA
ENDROOT
TORSDOF 0
