REMARK  Name = UVC_temp.pdb
REMARK  6 active torsions:
REMARK  status: ('A' for Active; 'I' for Inactive)
REMARK    1  A    between atoms: N_1  and  C_9
REMARK    2  A    between atoms: C_13  and  C_16
REMARK    3  A    between atoms: C_16  and  O_17
REMARK    4  A    between atoms: V_18  and  O_19
REMARK    5  A    between atoms: V_18  and  O_20
REMARK    6  A    between atoms: V_18  and  O_21
REMARK                            x       y       z     vdW  Elec       q    Type
REMARK                         _______ _______ _______ _____ _____    ______ ____
ROOT
ATOM      1  C   UNL     1      -1.163  -2.382  -0.520  0.00  0.00    +0.000 C 
ATOM      2  C   UNL     1      -2.120  -3.263   0.307  0.00  0.00    +0.000 C 
ATOM      3  O   UNL     1      -2.147  -4.523  -0.308  0.00  0.00    +0.000 OA
ATOM      4  C   UNL     1      -3.414  -2.544   0.073  0.00  0.00    +0.000 C 
ATOM      5  C   UNL     1      -3.259  -2.183  -1.400  0.00  0.00    +0.000 C 
ATOM      6  O   UNL     1      -4.537  -3.345   0.329  0.00  0.00    +0.000 OA
ATOM      7  O   UNL     1      -1.901  -1.839  -1.608  0.00  0.00    +0.000 OA
ATOM      8  V   UNL     1      -3.987  -5.167  -0.196  0.00  0.00    +0.000 V 
ENDROOT
BRANCH   1   9
ATOM      9  N   UNL     1      -0.450  -1.288   0.188  0.00  0.00    +0.000 N 
ATOM     10  C   UNL     1       0.601  -0.673  -0.483  0.00  0.00    +0.000 A 
ATOM     11  N   UNL     1       1.352   0.290   0.135  0.00  0.00    +0.000 N 
ATOM     12  C   UNL     1       1.076   0.683   1.414  0.00  0.00    +0.000 A 
ATOM     13  C   UNL     1       0.015   0.100   2.100  0.00  0.00    +0.000 A 
ATOM     14  C   UNL     1      -0.738  -0.893   1.469  0.00  0.00    +0.000 A 
ATOM     15  O   UNL     1       0.887  -1.004  -1.623  0.00  0.00    +0.000 OA
ATOM     16  O   UNL     1       1.758   1.538   1.954  0.00  0.00    +0.000 OA
ATOM     17  H   UNL     1       2.155   0.729  -0.379  0.00  0.00    +0.000 HD
ENDBRANCH   1   9
BRANCH   8  18
ATOM     18  O   UNL     1      -5.150  -5.121  -1.791  0.00  0.00    +0.000 OA
ATOM     19  H   UNL     1      -5.543  -4.214  -1.825  0.00  0.00    +0.000 HD
ENDBRANCH   8  18
BRANCH   8  20
ATOM     20  O   UNL     1      -4.675  -5.932   1.486  0.00  0.00    +0.000 OA
ATOM     21  H   UNL     1      -4.880  -5.166   2.076  0.00  0.00    +0.000 HD
ENDBRANCH   8  20
BRANCH   8  22
ATOM     22  O   UNL     1      -3.337  -6.955  -0.718  0.00  0.00    +0.000 OA
ATOM     23  H   UNL     1      -4.069  -7.375  -1.235  0.00  0.00    +0.000 HD
ENDBRANCH   8  22
BRANCH   5  24
ATOM     24  C   UNL     1      -4.197  -1.048  -1.830  0.00  0.00    +0.000 C 
BRANCH  24  25
ATOM     25  O   UNL     1      -3.931   0.120  -1.095  0.00  0.00    +0.000 OA
ATOM     26  H   UNL     1      -3.594   0.804  -1.730  0.00  0.00    +0.000 HD
ENDBRANCH  24  25
ENDBRANCH   5  24
TORSDOF 6
