MODEL 1
REMARK VINA RESULT:    -7.541      0.000      0.000
REMARK INTER + INTRA:          -7.541
REMARK INTER:                  -7.541
REMARK INTRA:                   0.000
REMARK UNBOUND:                 0.000
ROOT
HETATM    1 N1   UVC A 125      32.211  13.178   9.153  1.00  0.00    +0.000 N
HETATM    1 C2   UVC A 125      32.080  13.779  10.514  1.00  0.00    +0.000 C
HETATM    1 N3   UVC A 125      33.192  13.494  11.194  1.00  0.00    +0.000 N
HETATM    1 C4   UVC A 125      34.312  12.855  10.956  1.00  0.00    +0.000 C
HETATM    1 C5   UVC A 125      34.374  12.310   9.567  1.00  0.00    +0.000 C
HETATM    1 C6   UVC A 125      33.284  12.529   8.820  1.00  0.00    +0.000 C
HETATM    1 O2   UVC A 125      31.123  14.320  10.729  1.00  0.00    +0.000 OA
HETATM    1 O4   UVC A 125      35.291  12.711  11.749  1.00  0.00    +0.000 OA
HETATM    1 C1'  UVC A 125      31.004  13.444   8.345  1.00  0.00    +0.000 C
HETATM    1 C2'  UVC A 125      31.117  14.787   7.618  1.00  0.00    +0.000 C
HETATM    1 O2'  UVC A 125      29.764  15.079   7.467  1.00  0.00    -0.750 OA
HETATM    1 C3'  UVC A 125      31.731  14.339   6.333  1.00  0.00    +0.000 C
HETATM    1 C4'  UVC A 125      31.227  12.966   6.045  1.00  0.00    +0.000 C
HETATM    1 O3'  UVC A 125      31.177  15.245   5.428  1.00  0.00    -0.750 OA
HETATM    1 O4'  UVC A 125      31.023  12.294   7.379  1.00  0.00    +0.000 OA
HETATM    1 C5'  UVC A 125      31.914  11.828   5.247  1.00  0.00    +0.000 C
HETATM    1 O5'  UVC A 125      33.233  11.850   5.694  1.00  0.00    +0.000 OA
HETATM    1 V    UVC A 125      29.670  16.429   5.999  1.00  0.00    +1.500 Zn
HETATM    1 O1V  UVC A 125      29.915  17.997   6.802  1.00  0.00    -0.750 OA
HETATM    1 O2V  UVC A 125      28.339  16.373   5.842  1.00  0.00    -0.750 OA
HETATM    1 O3V  UVC A 125      30.206  17.010   4.257  1.00  0.00    -0.750 OA
ENDROOT
TORSDOF 0
ENDMDL
MODEL 2
REMARK VINA RESULT:    -7.001      3.481      6.592
REMARK INTER + INTRA:          -7.001
REMARK INTER:                  -7.001
REMARK INTRA:                   0.000
REMARK UNBOUND:                 0.000
ROOT
HETATM    1 N1   UVC A 125      34.141  12.814   7.911  1.00  0.00    +0.000 N
HETATM    1 C2   UVC A 125      35.369  12.225   7.299  1.00  0.00    +0.000 C
HETATM    1 N3   UVC A 125      35.583  12.844   6.137  1.00  0.00    +0.000 N
HETATM    1 C4   UVC A 125      35.004  13.800   5.450  1.00  0.00    +0.000 C
HETATM    1 C5   UVC A 125      33.802  14.352   6.143  1.00  0.00    +0.000 C
HETATM    1 C6   UVC A 125      33.499  13.768   7.310  1.00  0.00    +0.000 C
HETATM    1 O2   UVC A 125      35.866  11.402   7.875  1.00  0.00    +0.000 OA
HETATM    1 O4   UVC A 125      35.387  14.281   4.341  1.00  0.00    +0.000 OA
HETATM    1 C1'  UVC A 125      33.834  12.164   9.201  1.00  0.00    +0.000 C
HETATM    1 C2'  UVC A 125      34.577  12.854  10.350  1.00  0.00    +0.000 C
HETATM    1 O2'  UVC A 125      34.636  11.793  11.251  1.00  0.00    -0.750 OA
HETATM    1 C3'  UVC A 125      33.553  13.863  10.754  1.00  0.00    +0.000 C
HETATM    1 C4'  UVC A 125      32.209  13.270  10.506  1.00  0.00    +0.000 C
HETATM    1 O3'  UVC A 125      33.782  13.957  12.127  1.00  0.00    -0.750 OA
HETATM    1 O4'  UVC A 125      32.350  12.371   9.304  1.00  0.00    +0.000 OA
HETATM    1 C5'  UVC A 125      30.877  13.990  10.175  1.00  0.00    +0.000 C
HETATM    1 O5'  UVC A 125      31.237  14.954   9.237  1.00  0.00    +0.000 OA
HETATM    1 V    UVC A 125      34.968  12.627  13.034  1.00  0.00    +1.500 Zn
HETATM    1 O1V  UVC A 125      36.734  12.807  13.135  1.00  0.00    -0.750 OA
HETATM    1 O2V  UVC A 125      34.735  11.518  13.752  1.00  0.00    -0.750 OA
HETATM    1 O3V  UVC A 125      34.555  13.977  14.325  1.00  0.00    -0.750 OA
ENDROOT
TORSDOF 0
ENDMDL
MODEL 3
REMARK VINA RESULT:    -6.504      1.506      1.633
REMARK INTER + INTRA:          -6.504
REMARK INTER:                  -6.504
REMARK INTRA:                   0.000
REMARK UNBOUND:                 0.000
ROOT
HETATM    1 N1   UVC A 125      31.924  13.612   7.612  1.00  0.00    +0.000 N
HETATM    1 C2   UVC A 125      31.627  13.902   9.046  1.00  0.00    +0.000 C
HETATM    1 N3   UVC A 125      32.738  13.671   9.748  1.00  0.00    +0.000 N
HETATM    1 C4   UVC A 125      33.962  13.280   9.485  1.00  0.00    +0.000 C
HETATM    1 C5   UVC A 125      34.183  13.039   8.028  1.00  0.00    +0.000 C
HETATM    1 C6   UVC A 125      33.108  13.223   7.250  1.00  0.00    +0.000 C
HETATM    1 O2   UVC A 125      30.581  14.228   9.281  1.00  0.00    +0.000 OA
HETATM    1 O4   UVC A 125      34.912  13.141  10.313  1.00  0.00    +0.000 OA
HETATM    1 C1'  UVC A 125      30.730  13.835   6.773  1.00  0.00    +0.000 C
HETATM    1 C2'  UVC A 125      30.643  15.297   6.323  1.00  0.00    +0.000 C
HETATM    1 O2'  UVC A 125      29.268  15.391   6.121  1.00  0.00    -0.750 OA
HETATM    1 C3'  UVC A 125      31.386  15.217   5.030  1.00  0.00    +0.000 C
HETATM    1 C4'  UVC A 125      31.141  13.866   4.450  1.00  0.00    +0.000 C
HETATM    1 O3'  UVC A 125      30.726  16.184   4.270  1.00  0.00    -0.750 OA
HETATM    1 O4'  UVC A 125      30.994  12.918   5.613  1.00  0.00    +0.000 OA
HETATM    1 C5'  UVC A 125      32.052  13.035   3.511  1.00  0.00    +0.000 C
HETATM    1 O5'  UVC A 125      33.324  13.179   4.058  1.00  0.00    +0.000 OA
HETATM    1 V    UVC A 125      29.012  16.973   4.930  1.00  0.00    +1.500 Zn
HETATM    1 O1V  UVC A 125      28.942  18.369   6.030  1.00  0.00    -0.750 OA
HETATM    1 O2V  UVC A 125      27.719  16.736   4.659  1.00  0.00    -0.750 OA
HETATM    1 O3V  UVC A 125      29.521  17.967   3.377  1.00  0.00    -0.750 OA
ENDROOT
TORSDOF 0
ENDMDL
MODEL 4
REMARK VINA RESULT:    -6.444      2.838      4.533
REMARK INTER + INTRA:          -6.444
REMARK INTER:                  -6.444
REMARK INTRA:                   0.000
REMARK UNBOUND:                 0.000
ROOT
HETATM    1 N1   UVC A 125      31.552  13.520   7.317  1.00  0.00    +0.000 N
HETATM    1 C2   UVC A 125      32.356  12.453   7.984  1.00  0.00    +0.000 C
HETATM    1 N3   UVC A 125      32.209  12.595   9.302  1.00  0.00    +0.000 N
HETATM    1 C4   UVC A 125      31.553  13.402  10.102  1.00  0.00    +0.000 C
HETATM    1 C5   UVC A 125      30.755  14.419   9.356  1.00  0.00    +0.000 C
HETATM    1 C6   UVC A 125      30.865  14.365   8.022  1.00  0.00    +0.000 C
HETATM    1 O2   UVC A 125      32.927  11.764   7.308  1.00  0.00    +0.000 OA
HETATM    1 O4   UVC A 125      31.519  13.357  11.369  1.00  0.00    +0.000 OA
HETATM    1 C1'  UVC A 125      31.679  13.431   5.848  1.00  0.00    +0.000 C
HETATM    1 C2'  UVC A 125      30.639  12.468   5.267  1.00  0.00    +0.000 C
HETATM    1 O2'  UVC A 125      31.300  12.098   4.098  1.00  0.00    -0.750 OA
HETATM    1 C3'  UVC A 125      29.524  13.423   4.991  1.00  0.00    +0.000 C
HETATM    1 C4'  UVC A 125      30.131  14.738   4.639  1.00  0.00    +0.000 C
HETATM    1 O3'  UVC A 125      28.943  12.852   3.858  1.00  0.00    -0.750 OA
HETATM    1 O4'  UVC A 125      31.409  14.848   5.431  1.00  0.00    +0.000 OA
HETATM    1 C5'  UVC A 125      29.544  16.160   4.834  1.00  0.00    +0.000 C
HETATM    1 O5'  UVC A 125      28.998  16.128   6.114  1.00  0.00    +0.000 OA
HETATM    1 V    UVC A 125      29.884  11.376   2.890  1.00  0.00    +1.500 Zn
HETATM    1 O1V  UVC A 125      29.727   9.663   3.340  1.00  0.00    -0.750 OA
HETATM    1 O2V  UVC A 125      30.649  11.332   1.789  1.00  0.00    -0.750 OA
HETATM    1 O3V  UVC A 125      28.146  11.538   2.107  1.00  0.00    -0.750 OA
ENDROOT
TORSDOF 0
ENDMDL
MODEL 5
REMARK VINA RESULT:    -6.320      5.374      9.723
REMARK INTER + INTRA:          -6.320
REMARK INTER:                  -6.320
REMARK INTRA:                   0.000
REMARK UNBOUND:                 0.000
ROOT
HETATM    1 N1   UVC A 125      35.980  12.594  12.297  1.00  0.00    +0.000 N
HETATM    1 C2   UVC A 125      34.847  13.307  12.959  1.00  0.00    +0.000 C
HETATM    1 N3   UVC A 125      33.824  13.329  12.103  1.00  0.00    +0.000 N
HETATM    1 C4   UVC A 125      33.592  12.888  10.890  1.00  0.00    +0.000 C
HETATM    1 C5   UVC A 125      34.763  12.164  10.313  1.00  0.00    +0.000 C
HETATM    1 C6   UVC A 125      35.847  12.117  11.098  1.00  0.00    +0.000 C
HETATM    1 O2   UVC A 125      35.039  13.695  13.992  1.00  0.00    +0.000 OA
HETATM    1 O4   UVC A 125      32.510  12.989  10.236  1.00  0.00    +0.000 OA
HETATM    1 C1'  UVC A 125      37.158  12.543  13.186  1.00  0.00    +0.000 C
HETATM    1 C2'  UVC A 125      37.097  11.319  14.105  1.00  0.00    +0.000 C
HETATM    1 O2'  UVC A 125      37.878  11.786  15.159  1.00  0.00    -0.750 OA
HETATM    1 C3'  UVC A 125      37.837  10.327  13.268  1.00  0.00    +0.000 C
HETATM    1 C4'  UVC A 125      38.865  11.072  12.486  1.00  0.00    +0.000 C
HETATM    1 O3'  UVC A 125      38.459   9.548  14.245  1.00  0.00    -0.750 OA
HETATM    1 O4'  UVC A 125      38.284  12.433  12.198  1.00  0.00    +0.000 OA
HETATM    1 C5'  UVC A 125      39.478  10.719  11.107  1.00  0.00    +0.000 C
HETATM    1 O5'  UVC A 125      38.384  10.320  10.343  1.00  0.00    +0.000 OA
HETATM    1 V    UVC A 125      38.467  10.156  16.150  1.00  0.00    +1.500 Zn
HETATM    1 O1V  UVC A 125      37.145   9.808  17.287  1.00  0.00    -0.750 OA
HETATM    1 O2V  UVC A 125      39.372  10.779  16.918  1.00  0.00    -0.750 OA
HETATM    1 O3V  UVC A 125      39.184   8.383  16.127  1.00  0.00    -0.750 OA
ENDROOT
TORSDOF 0
ENDMDL
MODEL 6
REMARK VINA RESULT:    -6.304      2.377      4.354
REMARK INTER + INTRA:          -6.304
REMARK INTER:                  -6.304
REMARK INTRA:                   0.000
REMARK UNBOUND:                 0.000
ROOT
HETATM    1 N1   UVC A 125      33.332  13.048   8.777  1.00  0.00    +0.000 N
HETATM    1 C2   UVC A 125      34.459  12.228   9.314  1.00  0.00    +0.000 C
HETATM    1 N3   UVC A 125      34.448  12.339  10.643  1.00  0.00    +0.000 N
HETATM    1 C4   UVC A 125      33.714  12.958  11.537  1.00  0.00    +0.000 C
HETATM    1 C5   UVC A 125      32.596  13.731  10.921  1.00  0.00    +0.000 C
HETATM    1 C6   UVC A 125      32.547  13.695   9.582  1.00  0.00    +0.000 C
HETATM    1 O2   UVC A 125      35.096  11.702   8.556  1.00  0.00    +0.000 OA
HETATM    1 O4   UVC A 125      33.854  12.918  12.796  1.00  0.00    +0.000 OA
HETATM    1 C1'  UVC A 125      33.291  12.981   7.302  1.00  0.00    +0.000 C
HETATM    1 C2'  UVC A 125      32.466  11.779   6.832  1.00  0.00    +0.000 C
HETATM    1 O2'  UVC A 125      33.046  11.580   5.582  1.00  0.00    -0.750 OA
HETATM    1 C3'  UVC A 125      31.119  12.414   6.720  1.00  0.00    +0.000 C
HETATM    1 C4'  UVC A 125      31.321  13.838   6.327  1.00  0.00    +0.000 C
HETATM    1 O3'  UVC A 125      30.564  11.704   5.655  1.00  0.00    -0.750 OA
HETATM    1 O4'  UVC A 125      32.618  14.278   6.956  1.00  0.00    +0.000 OA
HETATM    1 C5'  UVC A 125      30.421  15.064   6.627  1.00  0.00    +0.000 C
HETATM    1 O5'  UVC A 125      30.067  14.905   7.964  1.00  0.00    +0.000 OA
HETATM    1 V    UVC A 125      31.719  10.509   4.543  1.00  0.00    +1.500 Zn
HETATM    1 O1V  UVC A 125      32.063   8.817   4.967  1.00  0.00    -0.750 OA
HETATM    1 O2V  UVC A 125      32.325  10.653   3.354  1.00  0.00    -0.750 OA
HETATM    1 O3V  UVC A 125      29.913  10.214   3.986  1.00  0.00    -0.750 OA
ENDROOT
TORSDOF 0
ENDMDL
MODEL 7
REMARK VINA RESULT:    -6.208      4.145      7.055
REMARK INTER + INTRA:          -6.208
REMARK INTER:                  -6.208
REMARK INTRA:                   0.000
REMARK UNBOUND:                 0.000
ROOT
HETATM    1 N1   UVC A 125      33.890  12.385   9.420  1.00  0.00    +0.000 N
HETATM    1 C2   UVC A 125      34.179  13.268  10.589  1.00  0.00    +0.000 C
HETATM    1 N3   UVC A 125      33.042  13.873  10.935  1.00  0.00    +0.000 N
HETATM    1 C4   UVC A 125      31.799  13.866  10.518  1.00  0.00    +0.000 C
HETATM    1 C5   UVC A 125      31.588  12.938   9.367  1.00  0.00    +0.000 C
HETATM    1 C6   UVC A 125      32.688  12.306   8.937  1.00  0.00    +0.000 C
HETATM    1 O2   UVC A 125      35.241  13.287  10.946  1.00  0.00    +0.000 OA
HETATM    1 O4   UVC A 125      30.826  14.513  11.011  1.00  0.00    +0.000 OA
HETATM    1 C1'  UVC A 125      35.113  11.689   8.972  1.00  0.00    +0.000 C
HETATM    1 C2'  UVC A 125      35.311  10.381   9.744  1.00  0.00    +0.000 C
HETATM    1 O2'  UVC A 125      36.693  10.253   9.623  1.00  0.00    -0.750 OA
HETATM    1 C3'  UVC A 125      34.589   9.433   8.844  1.00  0.00    +0.000 C
HETATM    1 C4'  UVC A 125      34.748   9.927   7.446  1.00  0.00    +0.000 C
HETATM    1 O3'  UVC A 125      35.329   8.264   9.019  1.00  0.00    -0.750 OA
HETATM    1 O4'  UVC A 125      34.806  11.431   7.525  1.00  0.00    +0.000 OA
HETATM    1 C5'  UVC A 125      33.798   9.735   6.236  1.00  0.00    +0.000 C
HETATM    1 O5'  UVC A 125      32.530   9.965   6.762  1.00  0.00    +0.000 OA
HETATM    1 V    UVC A 125      37.083   8.327   9.978  1.00  0.00    +1.500 Zn
HETATM    1 O1V  UVC A 125      37.230   8.207  11.746  1.00  0.00    -0.750 OA
HETATM    1 O2V  UVC A 125      38.360   8.366   9.569  1.00  0.00    -0.750 OA
HETATM    1 O3V  UVC A 125      36.674   6.482   9.684  1.00  0.00    -0.750 OA
ENDROOT
TORSDOF 0
ENDMDL
MODEL 8
REMARK VINA RESULT:    -6.118      2.969      6.607
REMARK INTER + INTRA:          -6.118
REMARK INTER:                  -6.118
REMARK INTRA:                   0.000
REMARK UNBOUND:                 0.000
ROOT
HETATM    1 N1   UVC A 125      32.083  13.119   6.448  1.00  0.00    +0.000 N
HETATM    1 C2   UVC A 125      32.461  12.606   5.098  1.00  0.00    +0.000 C
HETATM    1 N3   UVC A 125      32.219  13.572   4.211  1.00  0.00    +0.000 N
HETATM    1 C4   UVC A 125      31.761  14.801   4.249  1.00  0.00    +0.000 C
HETATM    1 C5   UVC A 125      31.434  15.246   5.636  1.00  0.00    +0.000 C
HETATM    1 C6   UVC A 125      31.624  14.324   6.589  1.00  0.00    +0.000 C
HETATM    1 O2   UVC A 125      32.845  11.554   5.055  1.00  0.00    +0.000 OA
HETATM    1 O4   UVC A 125      31.625  15.593   3.268  1.00  0.00    +0.000 OA
HETATM    1 C1'  UVC A 125      32.314  12.091   7.483  1.00  0.00    +0.000 C
HETATM    1 C2'  UVC A 125      33.752  12.156   8.006  1.00  0.00    +0.000 C
HETATM    1 O2'  UVC A 125      33.896  10.840   8.438  1.00  0.00    -0.750 OA
HETATM    1 C3'  UVC A 125      33.572  13.096   9.153  1.00  0.00    +0.000 C
HETATM    1 C4'  UVC A 125      32.204  12.880   9.704  1.00  0.00    +0.000 C
HETATM    1 O3'  UVC A 125      34.525  12.621  10.055  1.00  0.00    -0.750 OA
HETATM    1 O4'  UVC A 125      31.326  12.494   8.540  1.00  0.00    +0.000 OA
HETATM    1 C5'  UVC A 125      31.284  13.888  10.440  1.00  0.00    +0.000 C
HETATM    1 O5'  UVC A 125      31.401  15.059   9.695  1.00  0.00    +0.000 OA
HETATM    1 V    UVC A 125      35.422  10.865   9.726  1.00  0.00    +1.500 Zn
HETATM    1 O1V  UVC A 125      36.876  10.689   8.717  1.00  0.00    -0.750 OA
HETATM    1 O2V  UVC A 125      35.228   9.624  10.197  1.00  0.00    -0.750 OA
HETATM    1 O3V  UVC A 125      36.309  11.674  11.215  1.00  0.00    -0.750 OA
ENDROOT
TORSDOF 0
ENDMDL
MODEL 9
REMARK VINA RESULT:    -5.906      3.001      4.768
REMARK INTER + INTRA:          -5.906
REMARK INTER:                  -5.906
REMARK INTRA:                   0.000
REMARK UNBOUND:                 0.000
ROOT
HETATM    1 N1   UVC A 125      32.601  12.986   7.890  1.00  0.00    +0.000 N
HETATM    1 C2   UVC A 125      31.417  13.869   7.667  1.00  0.00    +0.000 C
HETATM    1 N3   UVC A 125      30.979  14.274   8.859  1.00  0.00    +0.000 N
HETATM    1 C4   UVC A 125      31.331  14.096  10.110  1.00  0.00    +0.000 C
HETATM    1 C5   UVC A 125      32.537  13.226  10.245  1.00  0.00    +0.000 C
HETATM    1 C6   UVC A 125      33.029  12.752   9.093  1.00  0.00    +0.000 C
HETATM    1 O2   UVC A 125      31.104  14.020   6.601  1.00  0.00    +0.000 OA
HETATM    1 O4   UVC A 125      30.785  14.604  11.135  1.00  0.00    +0.000 OA
HETATM    1 C1'  UVC A 125      33.133  12.487   6.607  1.00  0.00    +0.000 C
HETATM    1 C2'  UVC A 125      34.146  13.473   6.015  1.00  0.00    +0.000 C
HETATM    1 O2'  UVC A 125      34.028  13.139   4.668  1.00  0.00    -0.750 OA
HETATM    1 C3'  UVC A 125      35.408  12.938   6.607  1.00  0.00    +0.000 C
HETATM    1 C4'  UVC A 125      35.254  11.462   6.745  1.00  0.00    +0.000 C
HETATM    1 O3'  UVC A 125      36.331  13.225   5.600  1.00  0.00    -0.750 OA
HETATM    1 O4'  UVC A 125      33.795  11.206   7.027  1.00  0.00    +0.000 OA
HETATM    1 C5'  UVC A 125      35.920  10.509   7.770  1.00  0.00    +0.000 C
HETATM    1 O5'  UVC A 125      35.820  11.191   8.981  1.00  0.00    +0.000 OA
HETATM    1 V    UVC A 125      35.692  13.821   3.802  1.00  0.00    +1.500 Zn
HETATM    1 O1V  UVC A 125      35.341  15.519   3.407  1.00  0.00    -0.750 OA
HETATM    1 O2V  UVC A 125      35.508  13.193   2.630  1.00  0.00    -0.750 OA
HETATM    1 O3V  UVC A 125      37.596  14.006   3.806  1.00  0.00    -0.750 OA
ENDROOT
TORSDOF 0
ENDMDL
MODEL 10
REMARK VINA RESULT:    -5.761      2.832      6.189
REMARK INTER + INTRA:          -5.761
REMARK INTER:                  -5.761
REMARK INTRA:                   0.000
REMARK UNBOUND:                 0.000
ROOT
HETATM    1 N1   UVC A 125      30.558  14.763   6.278  1.00  0.00    +0.000 N
HETATM    1 C2   UVC A 125      30.315  14.973   4.820  1.00  0.00    +0.000 C
HETATM    1 N3   UVC A 125      29.880  16.223   4.655  1.00  0.00    +0.000 N
HETATM    1 C4   UVC A 125      29.638  17.254   5.429  1.00  0.00    +0.000 C
HETATM    1 C5   UVC A 125      29.933  16.970   6.865  1.00  0.00    +0.000 C
HETATM    1 C6   UVC A 125      30.352  15.724   7.125  1.00  0.00    +0.000 C
HETATM    1 O2   UVC A 125      30.511  14.095   4.152  1.00  0.00    +0.000 OA
HETATM    1 O4   UVC A 125      29.240  18.402   5.067  1.00  0.00    +0.000 OA
HETATM    1 C1'  UVC A 125      31.032  13.389   6.538  1.00  0.00    +0.000 C
HETATM    1 C2'  UVC A 125      32.556  13.302   6.407  1.00  0.00    +0.000 C
HETATM    1 O2'  UVC A 125      32.679  11.951   6.091  1.00  0.00    -0.750 OA
HETATM    1 C3'  UVC A 125      32.956  13.577   7.819  1.00  0.00    +0.000 C
HETATM    1 C4'  UVC A 125      31.891  13.031   8.706  1.00  0.00    +0.000 C
HETATM    1 O3'  UVC A 125      34.112  12.804   7.936  1.00  0.00    -0.750 OA
HETATM    1 O4'  UVC A 125      30.590  13.176   7.958  1.00  0.00    +0.000 OA
HETATM    1 C5'  UVC A 125      31.468  13.506  10.120  1.00  0.00    +0.000 C
HETATM    1 O5'  UVC A 125      31.442  14.895  10.016  1.00  0.00    +0.000 OA
HETATM    1 V    UVC A 125      34.573  11.477   6.513  1.00  0.00    +1.500 Zn
HETATM    1 O1V  UVC A 125      35.489  11.900   5.048  1.00  0.00    -0.750 OA
HETATM    1 O2V  UVC A 125      34.413  10.150   6.398  1.00  0.00    -0.750 OA
HETATM    1 O3V  UVC A 125      36.063  11.551   7.709  1.00  0.00    -0.750 OA
ENDROOT
TORSDOF 0
ENDMDL
