          AutoDock 4.2 Release 4.2.6   
         (C) 1989-2012 The Scripps Research Institute
        AutoDock comes with ABSOLUTELY NO WARRANTY.
        AutoDock is free software, and you are welcome
        to redistribute it under certain conditions;
        for details type 'autodock4 -C'

                     main.cc  $Revision: 1.213 $

                   Compiled on Dec 11 2024 at 15:52:35


This file was created at:			7:55 49" p.m., 08/04/2026
                   on host:		"TerminalXolotl"
Current Working Directory = "/mnt/c/Users/Me/Desktop/CANIFARMA/docking"

      ________________________________________________________________

                   SETTING UP DEFAULT PARAMETER LIBRARY
      ________________________________________________________________


Random number generator was seeded with values 4886, 1785894949.
Docking parameter file (DPF) used for this docking:		atp_pocket.dpf
DPF> parameter_file ../grid/AD4.1_bound.dat

Using read_parameter_library() to try to open and read "../grid/AD4.1_bound.dat".

DPF> ligand_types Zn OA

DPF> fld ../grid/4wo5_chainA_atp.maps.fld

Opening Grid Map Dimensions file:		../grid/4wo5_chainA_atp.maps.fld
Grid Point Spacing =				0.375 Angstroms

Even Number of User-specified Grid Points =	80 x-points
						80 y-points
						80 z-points

Coordinates of Central Grid Point of Maps =	(-28.233, -12.202, -28.237)
Macromolecule file used to create Grid Maps =	../receptor/4wo5_chainA.pdbqt
Grid Parameter file used to create Grid Maps =	atp_pocket.gpf
Minimum coordinates in grid = (-43.233, -27.202, -43.237)
Maximum coordinates in grid = (-13.233, 2.798, -13.237)

DPF> map ../grid/4wo5_chainA.Zn.map

autodock4: WARNING: Filename mismatch: "4wo5_chainA_atp.maps.fld" :: "../grid/4wo5_chainA_atp.maps.fld"
DPF> map ../grid/4wo5_chainA.OA.map

autodock4: WARNING: Filename mismatch: "4wo5_chainA_atp.maps.fld" :: "../grid/4wo5_chainA_atp.maps.fld"
DPF> elecmap ../grid/4wo5_chainA.e.map

autodock4: WARNING: Filename mismatch: "4wo5_chainA_atp.maps.fld" :: "../grid/4wo5_chainA_atp.maps.fld"
DPF> desolvmap ../grid/4wo5_chainA.d.map

autodock4: WARNING: Filename mismatch: "4wo5_chainA_atp.maps.fld" :: "../grid/4wo5_chainA_atp.maps.fld"
DPF> move ../ligands/decavanadate.pdbqt

1,4-interactions will be _ignored_ in the non-bonded internal energy calculation.

Ligand PDBQT file = "../ligands/decavanadate.pdbqt"

INPUT LIGAND PDBQT FILE:
________________________

INPUT-LIGAND-PDBQT: ROOT
INPUT-LIGAND-PDBQT: HETATM    1  O28 DVT A 531      36.341   4.432 117.126  1.00  0.00    -0.750 OA
INPUT-LIGAND-PDBQT: HETATM    2  V10 DVT A 531      37.098   3.051 116.989  1.00  0.00    +1.500 Zn
INPUT-LIGAND-PDBQT: HETATM    3  O18 DVT A 531      36.134   1.975 115.832  1.00  0.00    -0.750 OA
INPUT-LIGAND-PDBQT: HETATM    4  O15 DVT A 531      38.227   3.241 115.545  1.00  0.00    -0.750 OA
INPUT-LIGAND-PDBQT: HETATM    5  V1  DVT A 531      39.308   1.802 115.180  1.00  0.00    +1.500 Zn
INPUT-LIGAND-PDBQT: HETATM    6  O5  DVT A 531      40.157   2.241 113.866  1.00  0.00    -0.750 OA
INPUT-LIGAND-PDBQT: HETATM    7  O27 DVT A 531      38.600   3.370 118.085  1.00  0.00    -0.750 OA
INPUT-LIGAND-PDBQT: HETATM    8  V9  DVT A 531      39.815   1.999 118.210  1.00  0.00    +1.500 Zn
INPUT-LIGAND-PDBQT: HETATM    9  O2  DVT A 531      38.209   0.983 117.036  1.00  0.00    -0.750 OA
INPUT-LIGAND-PDBQT: HETATM   10  O4  DVT A 531      40.486   2.286 116.564  1.00  0.00    -0.750 OA
INPUT-LIGAND-PDBQT: HETATM   11  O8  DVT A 531      40.397   0.081 118.108  1.00  0.00    -0.750 OA
INPUT-LIGAND-PDBQT: HETATM   12  O26 DVT A 531      40.841   2.615 119.280  1.00  0.00    -0.750 OA
INPUT-LIGAND-PDBQT: HETATM   13  O24 DVT A 531      38.644   1.165 119.625  1.00  0.00    -0.750 OA
INPUT-LIGAND-PDBQT: HETATM   14  V7  DVT A 531      39.777  -0.498 119.884  1.00  0.00    +1.500 Zn
INPUT-LIGAND-PDBQT: HETATM   15  O11 DVT A 531      40.306  -2.172 119.563  1.00  0.00    -0.750 OA
INPUT-LIGAND-PDBQT: HETATM   16  O25 DVT A 531      40.664   0.305 120.953  1.00  0.00    -0.750 OA
INPUT-LIGAND-PDBQT: HETATM   17  O21 DVT A 531      38.491  -1.079 121.068  1.00  0.00    -0.750 OA
INPUT-LIGAND-PDBQT: HETATM   18  V6  DVT A 531      37.025  -2.026 120.399  1.00  0.00    +1.500 Zn
INPUT-LIGAND-PDBQT: HETATM   19  O19 DVT A 531      35.766  -2.380 119.048  1.00  0.00    -0.750 OA
INPUT-LIGAND-PDBQT: HETATM   20  O22 DVT A 531      36.339  -2.358 121.809  1.00  0.00    -0.750 OA
INPUT-LIGAND-PDBQT: HETATM   21  O6  DVT A 531      38.050  -3.515 120.012  1.00  0.00    -0.750 OA
INPUT-LIGAND-PDBQT: HETATM   22  V8  DVT A 531      37.026   0.591 118.791  1.00  0.00    +1.500 Zn
INPUT-LIGAND-PDBQT: HETATM   23  O20 DVT A 531      36.246  -0.142 120.074  1.00  0.00    -0.750 OA
INPUT-LIGAND-PDBQT: HETATM   24  O23 DVT A 531      36.377   2.125 118.636  1.00  0.00    -0.750 OA
INPUT-LIGAND-PDBQT: HETATM   25  O16 DVT A 531      38.116  -1.181 118.540  1.00  0.00    -0.750 OA
INPUT-LIGAND-PDBQT: HETATM   26  V5  DVT A 531      39.180  -3.286 118.545  1.00  0.00    +1.500 Zn
INPUT-LIGAND-PDBQT: HETATM   27  O14 DVT A 531      39.982  -4.673 118.397  1.00  0.00    -0.750 OA
INPUT-LIGAND-PDBQT: HETATM   28  O7  DVT A 531      39.979  -2.339 116.936  1.00  0.00    -0.750 OA
INPUT-LIGAND-PDBQT: HETATM   29  V2  DVT A 531      39.281  -0.805 116.763  1.00  0.00    +1.500 Zn
INPUT-LIGAND-PDBQT: HETATM   30  O1  DVT A 531      40.042  -0.111 115.435  1.00  0.00    -0.750 OA
INPUT-LIGAND-PDBQT: HETATM   31  O17 DVT A 531      36.008  -0.237 117.365  1.00  0.00    -0.750 OA
INPUT-LIGAND-PDBQT: HETATM   32  V4  DVT A 531      36.480  -2.178 117.434  1.00  0.00    +1.500 Zn
INPUT-LIGAND-PDBQT: HETATM   33  O13 DVT A 531      37.634  -3.579 117.484  1.00  0.00    -0.750 OA
INPUT-LIGAND-PDBQT: HETATM   34  O12 DVT A 531      35.401  -2.798 116.413  1.00  0.00    -0.750 OA
INPUT-LIGAND-PDBQT: HETATM   35  O9  DVT A 531      37.655  -1.404 116.029  1.00  0.00    -0.750 OA
INPUT-LIGAND-PDBQT: HETATM   36  V3  DVT A 531      36.695   0.301 115.576  1.00  0.00    +1.500 Zn
INPUT-LIGAND-PDBQT: HETATM   37  O3  DVT A 531      37.923   0.856 114.360  1.00  0.00    -0.750 OA
INPUT-LIGAND-PDBQT: HETATM   38  O10 DVT A 531      35.625  -0.369 114.557  1.00  0.00    -0.750 OA
INPUT-LIGAND-PDBQT: ENDROOT
INPUT-LIGAND-PDBQT: TORSDOF 0
________________________________________________________________________________

Total charge on ligand                               =	-6.000 e

*** No Rotatable Bonds detected in Small Molecule. ***

Number of atoms in ligand:  38

Number of non-hydrogen atoms in ligand:  38

Number of vibrational degrees of freedom of ligand:  108


Number of torsional degrees of freedom = 0
Estimated loss of torsional free energy upon binding = +0.0000 kcal/mol


DPF> tran0 random

Initial translation =			(-21.664, -24.444, -34.288) Angstroms
DPF> quaternion0 random

Each run will begin with a new, random initial orientation.
Initial quaternion,  (x,y,z,w) =	( 0.477, -0.627, 0.365, 0.496 ),
DPF> ndihe 0

autodock4: WARNING!  The "ndihe" command is no longer supported.  The number of torsions in the PDBQT file(s) is the number that will be used (i.e. 0)
DPF> torsdof 0

Number of torsional degrees of freedom = 0
Free energy coefficient for torsional degrees of freedom = 0.2983 as specified in parameter library "../grid/AD4.1_bound.dat".

Estimated loss of torsional free energy upon binding = +0.0000 kcal/mol

DPF> rmstol 2.0

Maximum RMS tolerance for conformational cluster analysis = 2.00 Angstroms
DPF> outlev 1

Output Level = 1  ADT-COMPATIBLE OUTPUT DURING DOCKING.
DPF> set_ga

DPF> set_sw1

Creating a new Local Search object using the Solis-Wets algorithm (SW1) with the current settings.

DPF> ga_pop_size 150

A population of 150 individuals will be used
DPF> ga_num_evals 2500000

There will be at most 2500000 function evaluations used.
DPF> ga_num_generations 27000

The GA will run for at most 27000 generations.
DPF> ga_elitism 1

The 1 best will be preserved each GA generation.
DPF> ga_mutation_rate 0.02

The mutation rate is 0.020000.
DPF> ga_crossover_rate 0.80

The crossover rate is 0.800000.
DPF> ga_window_size 10

The GA's selection window is 10 generations.
DPF> ga_run 50

auto-centering ligand on root atoms: 38.166 -0.098 117.777
Furthest true ligand atom from "about" center is 4.972 Angstroms (maxrad).
Number of requested GA dockings = 50 runs
Unbound model to be used is from file: "../grid/AD4.1_bound.dat".

	BEGINNING GENETIC ALGORITHM DOCKING 1 of 50
Run: 1 Seed: 1476817738 1260180659 [ Run 1 of 50 GA/GALS ]
Beginning LAMARCKIAN GENETIC ALGORITHM (LGA), with a maximum of 2500000 energy evaluations.

Final-Value: -0.722


	FINAL GENETIC ALGORITHM DOCKED STATE
	_______________________________________________


Detailed state:  trans -17.828 -14.749 -29.124 quatxyzw 0.319054 0.563722 0.718366 -0.253717 center 38.166 -0.098 117.777 ntor 0
State:	-17.828 -14.749 -29.124   0.330  0.583  0.743 -150.605  

DOCKED: MODEL        1
DOCKED: USER    Run = 1
DOCKED: USER    DPF = atp_pocket.dpf
DOCKED: USER  
DOCKED: USER    Estimated Free Energy of Binding    =   -0.72 kcal/mol  [=(1)+(2)+(3)-(4)]
DOCKED: USER    Estimated Inhibition Constant, Ki   =  295.55 mM (millimolar)  [Temperature = 298.15 K]
DOCKED: USER    
DOCKED: USER    (1) Final Intermolecular Energy     =   -0.72 kcal/mol
DOCKED: USER        vdW + Hbond + desolv Energy     =   +0.73 kcal/mol
DOCKED: USER        Electrostatic Energy            =   -1.45 kcal/mol
DOCKED: USER    (2) Final Total Internal Energy     =   +0.00 kcal/mol
DOCKED: USER    (3) Torsional Free Energy           =   +0.00 kcal/mol
DOCKED: USER    (4) Unbound System's Energy  [=(2)] =   +0.00 kcal/mol
DOCKED: USER    
DOCKED: USER    
DOCKED: USER    NEWDPF move ../ligands/decavanadate.pdbqt
DOCKED: USER    NEWDPF about 38.166447 -0.097658 117.776763
DOCKED: USER    NEWDPF tran0 -17.827554 -14.748777 -29.124435
DOCKED: USER    NEWDPF quaternion0 0.319054 0.563722 0.718366 -0.253717
DOCKED: USER    NEWDPF axisangle0 0.329848 0.582792 0.742667 -150.604841
DOCKED: USER    NEWDPF quat0 0.329848 0.582792 0.742667 -150.604841
DOCKED: USER  keepresnum = 1 
DOCKED: USER  
DOCKED: USER                              x       y       z     vdW  Elec       q    Type
DOCKED: USER                           _______ _______ _______ _____ _____    ______ ____
DOCKED: ROOT
DOCKED: ATOM      1  O28 DVT A 531     -17.115 -17.560 -25.142 +0.00 +0.07    -0.750 OA
DOCKED: ATOM      2  V10 DVT A 531     -17.716 -16.775 -26.375 +0.01 -0.09    +1.500 Zn
DOCKED: ATOM      3  O18 DVT A 531     -17.928 -17.970 -27.773 +0.01 +0.01    -0.750 OA
DOCKED: ATOM      4  O15 DVT A 531     -19.545 -16.938 -26.228 +0.00 +0.03    -0.750 OA
DOCKED: ATOM      5  V1  DVT A 531     -20.532 -16.052 -27.499 +0.05 +0.02    +1.500 Zn
DOCKED: ATOM      6  O5  DVT A 531     -22.079 -16.393 -27.138 +0.02 +0.01    -0.750 OA
DOCKED: ATOM      7  O27 DVT A 531     -17.904 -15.052 -25.630 +0.00 +0.06    -0.750 OA
DOCKED: ATOM      8  V9  DVT A 531     -18.616 -13.768 -26.733 +0.01 -0.09    +1.500 Zn
DOCKED: ATOM      9  O2  DVT A 531     -18.413 -15.453 -28.186 +0.02 -0.02    -0.750 OA
DOCKED: ATOM     10  O4  DVT A 531     -20.291 -14.417 -26.603 +0.01 +0.03    -0.750 OA
DOCKED: ATOM     11  O8  DVT A 531     -19.071 -12.961 -28.513 +0.02 +0.00    -0.750 OA
DOCKED: ATOM     12  O26 DVT A 531     -18.507 -12.477 -25.786 +0.00 +0.07    -0.750 OA
DOCKED: ATOM     13  O24 DVT A 531     -16.777 -13.503 -27.518 +0.01 +0.05    -0.750 OA
DOCKED: ATOM     14  V7  DVT A 531     -17.332 -12.122 -28.897 +0.04 -0.04    +1.500 Zn
DOCKED: ATOM     15  O11 DVT A 531     -17.916 -11.553 -30.484 +0.04 -0.05    -0.750 OA
DOCKED: ATOM     16  O25 DVT A 531     -17.132 -10.977 -27.792 +0.00 +0.07    -0.750 OA
DOCKED: ATOM     17  O21 DVT A 531     -15.589 -12.150 -29.493 +0.02 +0.03    -0.750 OA
DOCKED: ATOM     18  V6  DVT A 531     -15.104 -13.422 -30.773 +0.12 +0.02    +1.500 Zn
DOCKED: ATOM     19  O19 DVT A 531     -15.268 -15.126 -31.552 +0.06 -0.05    -0.750 OA
DOCKED: ATOM     20  O22 DVT A 531     -13.595 -12.927 -30.987 +0.04 +0.08    -0.750 OA
DOCKED: ATOM     21  O6  DVT A 531     -16.069 -12.579 -32.106 +0.04 -0.23    -0.750 OA
DOCKED: ATOM     22  V8  DVT A 531     -16.314 -15.080 -28.489 +0.03 -0.03    +1.500 Zn
DOCKED: ATOM     23  O20 DVT A 531     -14.835 -14.641 -29.129 +0.02 +0.05    -0.750 OA
DOCKED: ATOM     24  O23 DVT A 531     -16.004 -16.012 -27.135 +0.00 +0.05    -0.750 OA
DOCKED: ATOM     25  O16 DVT A 531     -17.220 -14.035 -30.063 +0.04 -0.09    -0.750 OA
DOCKED: ATOM     26  V5  DVT A 531     -17.917 -12.765 -31.925 +0.23 +0.65    +1.500 Zn
DOCKED: ATOM     27  O14 DVT A 531     -18.556 -11.954 -33.158 -0.30 -0.71    -0.750 OA
DOCKED: ATOM     28  O7  DVT A 531     -19.653 -13.453 -31.125 +0.05 -0.22    -0.750 OA
DOCKED: ATOM     29  V2  DVT A 531     -19.323 -14.432 -29.783 +0.13 +0.27    +1.500 Zn
DOCKED: ATOM     30  O1  DVT A 531     -20.823 -14.905 -29.191 +0.04 -0.10    -0.750 OA
DOCKED: ATOM     31  O17 DVT A 531     -16.692 -16.546 -29.698 +0.03 -0.07    -0.750 OA
DOCKED: ATOM     32  V4  DVT A 531     -16.947 -15.702 -31.492 +0.18 +0.69    +1.500 Zn
DOCKED: ATOM     33  O13 DVT A 531     -17.673 -14.504 -32.647 +0.00 -0.65    -0.750 OA
DOCKED: ATOM     34  O12 DVT A 531     -16.983 -16.999 -32.445 -0.44 -0.79    -0.750 OA
DOCKED: ATOM     35  O9  DVT A 531     -18.781 -15.944 -30.763 +0.04 -0.42    -0.750 OA
DOCKED: ATOM     36  V3  DVT A 531     -18.485 -17.335 -29.345 +0.08 +0.26    +1.500 Zn
DOCKED: ATOM     37  O3  DVT A 531     -20.213 -17.364 -28.789 +0.03 -0.10    -0.750 OA
DOCKED: ATOM     38  O10 DVT A 531     -18.526 -18.612 -30.344 +0.02 -0.22    -0.750 OA
DOCKED: ENDROOT
DOCKED: TORSDOF 0
DOCKED: TER
DOCKED: ENDMDL
________________________________________________________________________________


	BEGINNING GENETIC ALGORITHM DOCKING 2 of 50
Run: 2 Seed: 1543949418 197438854 [ Run 2 of 50 GA/GALS ]
Beginning LAMARCKIAN GENETIC ALGORITHM (LGA), with a maximum of 2500000 energy evaluations.

Final-Value: -0.698


	FINAL GENETIC ALGORITHM DOCKED STATE
	_______________________________________________


Detailed state:  trans -18.687 -18.049 -27.671 quatxyzw 0.520843 -0.029011 0.722958 -0.453005 center 38.166 -0.098 117.777 ntor 0
State:	-18.687 -18.049 -27.671   0.584 -0.033  0.811 -126.127  

DOCKED: MODEL        2
DOCKED: USER    Run = 2
DOCKED: USER    DPF = atp_pocket.dpf
DOCKED: USER  
DOCKED: USER    Estimated Free Energy of Binding    =   -0.70 kcal/mol  [=(1)+(2)+(3)-(4)]
DOCKED: USER    Estimated Inhibition Constant, Ki   =  307.85 mM (millimolar)  [Temperature = 298.15 K]
DOCKED: USER    
DOCKED: USER    (1) Final Intermolecular Energy     =   -0.70 kcal/mol
DOCKED: USER        vdW + Hbond + desolv Energy     =   +0.24 kcal/mol
DOCKED: USER        Electrostatic Energy            =   -0.94 kcal/mol
DOCKED: USER    (2) Final Total Internal Energy     =   +0.00 kcal/mol
DOCKED: USER    (3) Torsional Free Energy           =   +0.00 kcal/mol
DOCKED: USER    (4) Unbound System's Energy  [=(2)] =   +0.00 kcal/mol
DOCKED: USER    
DOCKED: USER    
DOCKED: USER    NEWDPF move ../ligands/decavanadate.pdbqt
DOCKED: USER    NEWDPF about 38.166447 -0.097658 117.776763
DOCKED: USER    NEWDPF tran0 -18.686952 -18.049178 -27.670519
DOCKED: USER    NEWDPF quaternion0 0.520843 -0.029011 0.722958 -0.453005
DOCKED: USER    NEWDPF axisangle0 0.584226 -0.032541 0.810938 -126.126763
DOCKED: USER    NEWDPF quat0 0.584226 -0.032541 0.810938 -126.126763
DOCKED: USER  keepresnum = 1 
DOCKED: USER  
DOCKED: USER                              x       y       z     vdW  Elec       q    Type
DOCKED: USER                           _______ _______ _______ _____ _____    ______ ____
DOCKED: ROOT
DOCKED: ATOM      1  O28 DVT A 531     -22.178 -21.518 -27.442 +0.01 +0.03    -0.750 OA
DOCKED: ATOM      2  V10 DVT A 531     -21.367 -20.163 -27.509 +0.03 -0.03    +1.500 Zn
DOCKED: ATOM      3  O18 DVT A 531     -21.425 -19.538 -29.250 +0.05 -0.07    -0.750 OA
DOCKED: ATOM      4  O15 DVT A 531     -22.600 -18.827 -27.205 +0.02 +0.01    -0.750 OA
DOCKED: ATOM      5  V1  DVT A 531     -21.930 -17.118 -27.148 +0.05 -0.01    +1.500 Zn
DOCKED: ATOM      6  O5  DVT A 531     -23.225 -16.171 -26.896 +0.02 +0.02    -0.750 OA
DOCKED: ATOM      7  O27 DVT A 531     -20.859 -19.975 -25.701 +0.00 +0.05    -0.750 OA
DOCKED: ATOM      8  V9  DVT A 531     -19.886 -18.474 -25.287 +0.00 -0.10    +1.500 Zn
DOCKED: ATOM      9  O2  DVT A 531     -19.968 -18.277 -27.510 +0.01 -0.00    -0.750 OA
DOCKED: ATOM     10  O4  DVT A 531     -21.311 -17.378 -25.391 +0.00 +0.05    -0.750 OA
DOCKED: ATOM     11  O8  DVT A 531     -18.674 -16.931 -25.704 +0.00 +0.05    -0.750 OA
DOCKED: ATOM     12  O26 DVT A 531     -19.579 -18.745 -23.735 +0.00 +0.07    -0.750 OA
DOCKED: ATOM     13  O24 DVT A 531     -18.231 -19.443 -25.913 +0.00 +0.05    -0.750 OA
DOCKED: ATOM     14  V7  DVT A 531     -16.957 -17.890 -25.627 +0.00 -0.13    +1.500 Zn
DOCKED: ATOM     15  O11 DVT A 531     -16.068 -16.411 -26.081 +0.00 +0.07    -0.750 OA
DOCKED: ATOM     16  O25 DVT A 531     -16.772 -18.358 -24.103 +0.00 +0.07    -0.750 OA
DOCKED: ATOM     17  O21 DVT A 531     -15.638 -18.961 -26.339 +0.00 +0.07    -0.750 OA
DOCKED: ATOM     18  V6  DVT A 531     -15.406 -18.976 -28.194 +0.01 -0.13    +1.500 Zn
DOCKED: ATOM     19  O19 DVT A 531     -16.086 -18.860 -29.943 +0.02 +0.01    -0.750 OA
DOCKED: ATOM     20  O22 DVT A 531     -14.122 -19.934 -28.229 +0.00 +0.10    -0.750 OA
DOCKED: ATOM     21  O6  DVT A 531     -14.715 -17.261 -28.212 +0.01 +0.07    -0.750 OA
DOCKED: ATOM     22  V8  DVT A 531     -18.368 -19.688 -27.801 +0.02 -0.04    +1.500 Zn
DOCKED: ATOM     23  O20 DVT A 531     -16.897 -20.403 -28.139 +0.01 +0.05    -0.750 OA
DOCKED: ATOM     24  O23 DVT A 531     -19.501 -20.915 -27.718 +0.01 +0.03    -0.750 OA
DOCKED: ATOM     25  O16 DVT A 531     -17.388 -17.836 -27.828 +0.01 +0.02    -0.750 OA
DOCKED: ATOM     26  V5  DVT A 531     -15.992 -15.936 -27.901 +0.02 -0.08    +1.500 Zn
DOCKED: ATOM     27  O14 DVT A 531     -15.186 -14.544 -27.940 +0.01 +0.06    -0.750 OA
DOCKED: ATOM     28  O7  DVT A 531     -17.847 -15.167 -27.605 +0.01 +0.01    -0.750 OA
DOCKED: ATOM     29  V2  DVT A 531     -18.991 -16.416 -27.568 +0.03 +0.01    +1.500 Zn
DOCKED: ATOM     30  O1  DVT A 531     -20.468 -15.666 -27.282 +0.02 +0.00    -0.750 OA
DOCKED: ATOM     31  O17 DVT A 531     -18.789 -19.104 -29.600 +0.03 -0.10    -0.750 OA
DOCKED: ATOM     32  V4  DVT A 531     -17.431 -17.704 -30.036 +0.09 +0.29    +1.500 Zn
DOCKED: ATOM     33  O13 DVT A 531     -16.489 -16.185 -29.716 +0.03 -0.06    -0.750 OA
DOCKED: ATOM     34  O12 DVT A 531     -17.698 -17.489 -31.608 -0.16 -0.70    -0.750 OA
DOCKED: ATOM     35  O9  DVT A 531     -19.038 -16.703 -29.427 +0.03 -0.17    -0.750 OA
DOCKED: ATOM     36  V3  DVT A 531     -20.490 -18.072 -29.649 +0.16 +0.39    +1.500 Zn
DOCKED: ATOM     37  O3  DVT A 531     -21.812 -17.006 -29.007 +0.04 -0.11    -0.750 OA
DOCKED: ATOM     38  O10 DVT A 531     -20.722 -17.823 -31.235 -0.34 -0.80    -0.750 OA
DOCKED: ENDROOT
DOCKED: TORSDOF 0
DOCKED: TER
DOCKED: ENDMDL
________________________________________________________________________________


	BEGINNING GENETIC ALGORITHM DOCKING 3 of 50
Run: 3 Seed: 640628585 851351297 [ Run 3 of 50 GA/GALS ]
Beginning LAMARCKIAN GENETIC ALGORITHM (LGA), with a maximum of 2500000 energy evaluations.

Final-Value: -0.817


	FINAL GENETIC ALGORITHM DOCKED STATE
	_______________________________________________


Detailed state:  trans -17.350 -16.298 -29.409 quatxyzw 0.136452 0.777416 -0.504124 0.350521 center 38.166 -0.098 117.777 ntor 0
State:	-17.350 -16.298 -29.409   0.146  0.830 -0.538 138.962  

DOCKED: MODEL        3
DOCKED: USER    Run = 3
DOCKED: USER    DPF = atp_pocket.dpf
DOCKED: USER  
DOCKED: USER    Estimated Free Energy of Binding    =   -0.82 kcal/mol  [=(1)+(2)+(3)-(4)]
DOCKED: USER    Estimated Inhibition Constant, Ki   =  252.01 mM (millimolar)  [Temperature = 298.15 K]
DOCKED: USER    
DOCKED: USER    (1) Final Intermolecular Energy     =   -0.82 kcal/mol
DOCKED: USER        vdW + Hbond + desolv Energy     =   +0.63 kcal/mol
DOCKED: USER        Electrostatic Energy            =   -1.45 kcal/mol
DOCKED: USER    (2) Final Total Internal Energy     =   +0.00 kcal/mol
DOCKED: USER    (3) Torsional Free Energy           =   +0.00 kcal/mol
DOCKED: USER    (4) Unbound System's Energy  [=(2)] =   +0.00 kcal/mol
DOCKED: USER    
DOCKED: USER    
DOCKED: USER    NEWDPF move ../ligands/decavanadate.pdbqt
DOCKED: USER    NEWDPF about 38.166447 -0.097658 117.776763
DOCKED: USER    NEWDPF tran0 -17.350493 -16.298395 -29.408801
DOCKED: USER    NEWDPF quaternion0 0.136452 0.777416 -0.504124 0.350521
DOCKED: USER    NEWDPF axisangle0 0.145696 0.830080 -0.538275 138.961581
DOCKED: USER    NEWDPF quat0 0.145696 0.830080 -0.538275 138.961581
DOCKED: USER  keepresnum = 1 
DOCKED: USER  
DOCKED: USER                              x       y       z     vdW  Elec       q    Type
DOCKED: USER                           _______ _______ _______ _____ _____    ______ ____
DOCKED: ROOT
DOCKED: ATOM      1  O28 DVT A 531     -16.237 -14.824 -33.976 -0.58 -0.84    -0.750 OA
DOCKED: ATOM      2  V10 DVT A 531     -16.491 -14.930 -32.420 +0.27 +0.81    +1.500 Zn
DOCKED: ATOM      3  O18 DVT A 531     -14.858 -15.168 -31.581 +0.06 +0.01    -0.750 OA
DOCKED: ATOM      4  O15 DVT A 531     -16.342 -13.211 -31.771 +0.04 -0.22    -0.750 OA
DOCKED: ATOM      5  V1  DVT A 531     -16.665 -13.002 -29.976 +0.09 +0.07    +1.500 Zn
DOCKED: ATOM      6  O5  DVT A 531     -16.439 -11.418 -29.693 +0.03 +0.02    -0.750 OA
DOCKED: ATOM      7  O27 DVT A 531     -18.362 -14.689 -32.358 +0.10 -0.63    -0.750 OA
DOCKED: ATOM      8  V9  DVT A 531     -19.124 -14.711 -30.688 +0.18 +0.55    +1.500 Zn
DOCKED: ATOM      9  O2  DVT A 531     -17.028 -15.273 -30.160 +0.04 -0.12    -0.750 OA
DOCKED: ATOM     10  O4  DVT A 531     -18.523 -13.069 -30.262 +0.05 -0.11    -0.750 OA
DOCKED: ATOM     11  O8  DVT A 531     -19.201 -15.184 -28.739 +0.03 -0.07    -0.750 OA
DOCKED: ATOM     12  O26 DVT A 531     -20.677 -14.587 -31.075 +0.03 -0.32    -0.750 OA
DOCKED: ATOM     13  O24 DVT A 531     -19.133 -16.726 -30.779 +0.10 -0.53    -0.750 OA
DOCKED: ATOM     14  V7  DVT A 531     -19.887 -17.020 -28.919 +0.11 +0.23    +1.500 Zn
DOCKED: ATOM     15  O11 DVT A 531     -19.811 -17.260 -27.152 +0.01 +0.00    -0.750 OA
DOCKED: ATOM     16  O25 DVT A 531     -21.366 -16.889 -29.527 +0.03 -0.18    -0.750 OA
DOCKED: ATOM     17  O21 DVT A 531     -19.691 -18.826 -29.223 +0.03 -0.10    -0.750 OA
DOCKED: ATOM     18  V6  DVT A 531     -18.050 -19.625 -28.823 +0.04 +0.01    +1.500 Zn
DOCKED: ATOM     19  O19 DVT A 531     -16.175 -19.568 -28.692 +0.01 +0.05    -0.750 OA
DOCKED: ATOM     20  O22 DVT A 531     -18.473 -21.134 -29.157 +0.02 +0.02    -0.750 OA
DOCKED: ATOM     21  O6  DVT A 531     -18.310 -19.456 -27.001 +0.00 +0.04    -0.750 OA
DOCKED: ATOM     22  V8  DVT A 531     -17.322 -17.328 -30.729 +0.12 +0.54    +1.500 Zn
DOCKED: ATOM     23  O20 DVT A 531     -17.535 -18.986 -30.717 +0.02 -0.15    -0.750 OA
DOCKED: ATOM     24  O23 DVT A 531     -16.968 -16.892 -32.304 -0.45 -0.72    -0.750 OA
DOCKED: ATOM     25  O16 DVT A 531     -17.682 -17.345 -28.664 +0.02 -0.04    -0.750 OA
DOCKED: ATOM     26  V5  DVT A 531     -18.151 -17.703 -26.381 +0.01 -0.08    +1.500 Zn
DOCKED: ATOM     27  O14 DVT A 531     -18.429 -17.778 -24.798 +0.00 +0.06    -0.750 OA
DOCKED: ATOM     28  O7  DVT A 531     -17.760 -15.713 -26.492 +0.00 +0.04    -0.750 OA
DOCKED: ATOM     29  V2  DVT A 531     -17.358 -15.292 -28.083 +0.03 -0.01    +1.500 Zn
DOCKED: ATOM     30  O1  DVT A 531     -17.095 -13.632 -28.057 +0.02 +0.03    -0.750 OA
DOCKED: ATOM     31  O17 DVT A 531     -15.502 -17.299 -30.064 +0.03 +0.01    -0.750 OA
DOCKED: ATOM     32  V4  DVT A 531     -15.613 -17.962 -28.182 +0.02 -0.11    +1.500 Zn
DOCKED: ATOM     33  O13 DVT A 531     -16.277 -17.980 -26.492 +0.00 +0.06    -0.750 OA
DOCKED: ATOM     34  O12 DVT A 531     -14.055 -18.151 -27.825 +0.00 +0.09    -0.750 OA
DOCKED: ATOM     35  O9  DVT A 531     -15.606 -15.979 -28.038 +0.01 +0.05    -0.750 OA
DOCKED: ATOM     36  V3  DVT A 531     -14.850 -15.435 -29.818 +0.06 -0.09    +1.500 Zn
DOCKED: ATOM     37  O3  DVT A 531     -14.978 -13.651 -29.506 +0.03 +0.04    -0.750 OA
DOCKED: ATOM     38  O10 DVT A 531     -13.292 -15.643 -29.414 +0.01 +0.11    -0.750 OA
DOCKED: ENDROOT
DOCKED: TORSDOF 0
DOCKED: TER
DOCKED: ENDMDL
________________________________________________________________________________


	BEGINNING GENETIC ALGORITHM DOCKING 4 of 50
Run: 4 Seed: 815026514 216637079 [ Run 4 of 50 GA/GALS ]
Beginning LAMARCKIAN GENETIC ALGORITHM (LGA), with a maximum of 2500000 energy evaluations.

Final-Value: -0.750


	FINAL GENETIC ALGORITHM DOCKED STATE
	_______________________________________________


Detailed state:  trans -17.529 -16.131 -29.318 quatxyzw -0.139485 -0.775965 0.526886 -0.317511 center 38.166 -0.098 117.777 ntor 0
State:	-17.529 -16.131 -29.318  -0.147 -0.818  0.556 -142.975  

DOCKED: MODEL        4
DOCKED: USER    Run = 4
DOCKED: USER    DPF = atp_pocket.dpf
DOCKED: USER  
DOCKED: USER    Estimated Free Energy of Binding    =   -0.75 kcal/mol  [=(1)+(2)+(3)-(4)]
DOCKED: USER    Estimated Inhibition Constant, Ki   =  281.97 mM (millimolar)  [Temperature = 298.15 K]
DOCKED: USER    
DOCKED: USER    (1) Final Intermolecular Energy     =   -0.75 kcal/mol
DOCKED: USER        vdW + Hbond + desolv Energy     =   +0.71 kcal/mol
DOCKED: USER        Electrostatic Energy            =   -1.46 kcal/mol
DOCKED: USER    (2) Final Total Internal Energy     =   +0.00 kcal/mol
DOCKED: USER    (3) Torsional Free Energy           =   +0.00 kcal/mol
DOCKED: USER    (4) Unbound System's Energy  [=(2)] =   +0.00 kcal/mol
DOCKED: USER    
DOCKED: USER    
DOCKED: USER    NEWDPF move ../ligands/decavanadate.pdbqt
DOCKED: USER    NEWDPF about 38.166447 -0.097658 117.776763
DOCKED: USER    NEWDPF tran0 -17.528525 -16.131386 -29.318323
DOCKED: USER    NEWDPF quaternion0 -0.139485 -0.775965 0.526886 -0.317511
DOCKED: USER    NEWDPF axisangle0 -0.147097 -0.818309 0.555638 -142.975032
DOCKED: USER    NEWDPF quat0 -0.147097 -0.818309 0.555638 -142.975032
DOCKED: USER  keepresnum = 1 
DOCKED: USER  
DOCKED: USER                              x       y       z     vdW  Elec       q    Type
DOCKED: USER                           _______ _______ _______ _____ _____    ______ ____
DOCKED: ROOT
DOCKED: ATOM      1  O28 DVT A 531     -16.261 -14.824 -33.896 -0.56 -0.81    -0.750 OA
DOCKED: ATOM      2  V10 DVT A 531     -16.585 -14.868 -32.350 +0.26 +0.81    +1.500 Zn
DOCKED: ATOM      3  O18 DVT A 531     -14.986 -14.992 -31.427 +0.06 -0.01    -0.750 OA
DOCKED: ATOM      4  O15 DVT A 531     -16.541 -13.116 -31.780 +0.04 -0.24    -0.750 OA
DOCKED: ATOM      5  V1  DVT A 531     -16.959 -12.838 -30.014 +0.09 +0.09    +1.500 Zn
DOCKED: ATOM      6  O5  DVT A 531     -16.815 -11.234 -29.799 +0.03 +0.01    -0.750 OA
DOCKED: ATOM      7  O27 DVT A 531     -18.465 -14.710 -32.386 +0.15 -0.65    -0.750 OA
DOCKED: ATOM      8  V9  DVT A 531     -19.305 -14.688 -30.754 +0.19 +0.58    +1.500 Zn
DOCKED: ATOM      9  O2  DVT A 531     -17.215 -15.129 -30.103 +0.04 -0.13    -0.750 OA
DOCKED: ATOM     10  O4  DVT A 531     -18.796 -13.001 -30.382 +0.05 -0.12    -0.750 OA
DOCKED: ATOM     11  O8  DVT A 531     -19.456 -15.071 -28.790 +0.03 -0.07    -0.750 OA
DOCKED: ATOM     12  O26 DVT A 531     -20.842 -14.653 -31.217 +0.03 -0.35    -0.750 OA
DOCKED: ATOM     13  O24 DVT A 531     -19.223 -16.703 -30.747 +0.09 -0.53    -0.750 OA
DOCKED: ATOM     14  V7  DVT A 531     -20.052 -16.943 -28.911 +0.11 +0.23    +1.500 Zn
DOCKED: ATOM     15  O11 DVT A 531     -20.051 -17.097 -27.133 +0.01 +0.00    -0.750 OA
DOCKED: ATOM     16  O25 DVT A 531     -21.505 -16.908 -29.592 +0.03 -0.19    -0.750 OA
DOCKED: ATOM     17  O21 DVT A 531     -19.765 -18.751 -29.117 +0.03 -0.09    -0.750 OA
DOCKED: ATOM     18  V6  DVT A 531     -18.111 -19.455 -28.603 +0.04 +0.01    +1.500 Zn
DOCKED: ATOM     19  O19 DVT A 531     -16.249 -19.307 -28.389 +0.01 +0.05    -0.750 OA
DOCKED: ATOM     20  O22 DVT A 531     -18.453 -20.996 -28.882 +0.01 +0.02    -0.750 OA
DOCKED: ATOM     21  O6  DVT A 531     -18.466 -19.212 -26.805 +0.00 +0.04    -0.750 OA
DOCKED: ATOM     22  V8  DVT A 531     -17.393 -17.220 -30.583 +0.12 +0.51    +1.500 Zn
DOCKED: ATOM     23  O20 DVT A 531     -17.534 -18.883 -30.501 +0.02 -0.13    -0.750 OA
DOCKED: ATOM     24  O23 DVT A 531     -16.982 -16.842 -32.160 -0.43 -0.67    -0.750 OA
DOCKED: ATOM     25  O16 DVT A 531     -17.851 -17.155 -28.540 +0.02 -0.04    -0.750 OA
DOCKED: ATOM     26  V5  DVT A 531     -18.413 -17.427 -26.265 +0.01 -0.08    +1.500 Zn
DOCKED: ATOM     27  O14 DVT A 531     -18.764 -17.440 -24.695 +0.00 +0.06    -0.750 OA
DOCKED: ATOM     28  O7  DVT A 531     -18.102 -15.429 -26.456 +0.00 +0.04    -0.750 OA
DOCKED: ATOM     29  V2  DVT A 531     -17.643 -15.065 -28.045 +0.04 -0.00    +1.500 Zn
DOCKED: ATOM     30  O1  DVT A 531     -17.453 -13.396 -28.088 +0.02 +0.02    -0.750 OA
DOCKED: ATOM     31  O17 DVT A 531     -15.609 -17.077 -29.838 +0.03 +0.01    -0.750 OA
DOCKED: ATOM     32  V4  DVT A 531     -15.783 -17.655 -27.933 +0.01 -0.10    +1.500 Zn
DOCKED: ATOM     33  O13 DVT A 531     -16.526 -17.624 -26.276 +0.00 +0.06    -0.750 OA
DOCKED: ATOM     34  O12 DVT A 531     -14.237 -17.757 -27.496 +0.00 +0.09    -0.750 OA
DOCKED: ATOM     35  O9  DVT A 531     -15.868 -15.669 -27.886 +0.01 +0.04    -0.750 OA
DOCKED: ATOM     36  V3  DVT A 531     -15.050 -15.176 -29.653 +0.06 -0.07    +1.500 Zn
DOCKED: ATOM     37  O3  DVT A 531     -15.270 -13.387 -29.436 +0.03 +0.03    -0.750 OA
DOCKED: ATOM     38  O10 DVT A 531     -13.507 -15.294 -29.168 +0.01 +0.10    -0.750 OA
DOCKED: ENDROOT
DOCKED: TORSDOF 0
DOCKED: TER
DOCKED: ENDMDL
________________________________________________________________________________


	BEGINNING GENETIC ALGORITHM DOCKING 5 of 50
Run: 5 Seed: 1564474117 1783948960 [ Run 5 of 50 GA/GALS ]
Beginning LAMARCKIAN GENETIC ALGORITHM (LGA), with a maximum of 2500000 energy evaluations.

Final-Value: -0.806


	FINAL GENETIC ALGORITHM DOCKED STATE
	_______________________________________________


Detailed state:  trans -17.242 -13.731 -28.727 quatxyzw -0.543749 0.156129 -0.195774 -0.801021 center 38.166 -0.098 117.777 ntor 0
State:	-17.242 -13.731 -28.727  -0.908  0.261 -0.327 -73.545  

DOCKED: MODEL        5
DOCKED: USER    Run = 5
DOCKED: USER    DPF = atp_pocket.dpf
DOCKED: USER  
DOCKED: USER    Estimated Free Energy of Binding    =   -0.81 kcal/mol  [=(1)+(2)+(3)-(4)]
DOCKED: USER    Estimated Inhibition Constant, Ki   =  256.46 mM (millimolar)  [Temperature = 298.15 K]
DOCKED: USER    
DOCKED: USER    (1) Final Intermolecular Energy     =   -0.81 kcal/mol
DOCKED: USER        vdW + Hbond + desolv Energy     =   +0.45 kcal/mol
DOCKED: USER        Electrostatic Energy            =   -1.25 kcal/mol
DOCKED: USER    (2) Final Total Internal Energy     =   +0.00 kcal/mol
DOCKED: USER    (3) Torsional Free Energy           =   +0.00 kcal/mol
DOCKED: USER    (4) Unbound System's Energy  [=(2)] =   +0.00 kcal/mol
DOCKED: USER    
DOCKED: USER    
DOCKED: USER    NEWDPF move ../ligands/decavanadate.pdbqt
DOCKED: USER    NEWDPF about 38.166447 -0.097658 117.776763
DOCKED: USER    NEWDPF tran0 -17.241991 -13.730864 -28.727203
DOCKED: USER    NEWDPF quaternion0 -0.543749 0.156129 -0.195774 -0.801021
DOCKED: USER    NEWDPF axisangle0 -0.908311 0.260807 -0.327032 -73.544669
DOCKED: USER    NEWDPF quat0 -0.908311 0.260807 -0.327032 -73.544669
DOCKED: USER  keepresnum = 1 
DOCKED: USER  
DOCKED: USER                              x       y       z     vdW  Elec       q    Type
DOCKED: USER                           _______ _______ _______ _____ _____    ______ ____
DOCKED: ROOT
DOCKED: ATOM      1  O28 DVT A 531     -18.488 -11.872 -33.116 -0.33 -0.68    -0.750 OA
DOCKED: ATOM      2  V10 DVT A 531     -18.088 -12.807 -31.906 +0.23 +0.65    +1.500 Zn
DOCKED: ATOM      3  O18 DVT A 531     -19.622 -13.635 -31.284 +0.04 -0.26    -0.750 OA
DOCKED: ATOM      4  O15 DVT A 531     -17.742 -14.459 -32.645 +0.01 -0.65    -0.750 OA
DOCKED: ATOM      5  V1  DVT A 531     -17.173 -15.755 -31.475 +0.18 +0.79    +1.500 Zn
DOCKED: ATOM      6  O5  DVT A 531     -16.975 -17.084 -32.389 -0.48 -0.76    -0.750 OA
DOCKED: ATOM      7  O27 DVT A 531     -16.221 -12.539 -31.865 +0.04 -0.20    -0.750 OA
DOCKED: ATOM      8  V9  DVT A 531     -15.298 -13.481 -30.587 +0.11 +0.03    +1.500 Zn
DOCKED: ATOM      9  O2  DVT A 531     -17.392 -13.993 -30.003 +0.04 -0.09    -0.750 OA
DOCKED: ATOM     10  O4  DVT A 531     -15.432 -15.043 -31.472 +0.05 -0.07    -0.750 OA
DOCKED: ATOM     11  O8  DVT A 531     -15.112 -14.482 -28.858 +0.02 +0.05    -0.750 OA
DOCKED: ATOM     12  O26 DVT A 531     -13.817 -12.906 -30.815 +0.04 +0.07    -0.750 OA
DOCKED: ATOM     13  O24 DVT A 531     -15.787 -12.045 -29.257 +0.02 +0.04    -0.750 OA
DOCKED: ATOM     14  V7  DVT A 531     -14.915 -12.936 -27.655 +0.00 -0.15    +1.500 Zn
DOCKED: ATOM     15  O11 DVT A 531     -14.842 -14.007 -26.230 +0.00 +0.08    -0.750 OA
DOCKED: ATOM     16  O25 DVT A 531     -13.529 -12.232 -28.052 +0.00 +0.09    -0.750 OA
DOCKED: ATOM     17  O21 DVT A 531     -15.575 -11.548 -26.640 +0.00 +0.08    -0.750 OA
DOCKED: ATOM     18  V6  DVT A 531     -17.304 -11.695 -25.943 +0.00 -0.15    +1.500 Zn
DOCKED: ATOM     19  O19 DVT A 531     -19.081 -12.299 -26.053 +0.00 +0.07    -0.750 OA
DOCKED: ATOM     20  O22 DVT A 531     -17.298 -10.332 -25.101 +0.00 +0.09    -0.750 OA
DOCKED: ATOM     21  O6  DVT A 531     -16.800 -12.999 -24.733 +0.00 +0.08    -0.750 OA
DOCKED: ATOM     22  V8  DVT A 531     -17.671 -12.129 -28.962 +0.05 -0.03    +1.500 Zn
DOCKED: ATOM     23  O20 DVT A 531     -17.864 -10.956 -27.788 +0.00 +0.06    -0.750 OA
DOCKED: ATOM     24  O23 DVT A 531     -18.089 -11.432 -30.423 +0.04 -0.04    -0.750 OA
DOCKED: ATOM     25  O16 DVT A 531     -17.089 -13.448 -27.441 +0.01 +0.04    -0.750 OA
DOCKED: ATOM     26  V5  DVT A 531     -16.458 -14.657 -25.516 +0.00 -0.14    +1.500 Zn
DOCKED: ATOM     27  O14 DVT A 531     -16.025 -15.625 -24.306 +0.00 +0.08    -0.750 OA
DOCKED: ATOM     28  O7  DVT A 531     -16.368 -16.032 -27.008 +0.00 +0.05    -0.750 OA
DOCKED: ATOM     29  V2  DVT A 531     -16.838 -15.326 -28.474 +0.04 -0.00    +1.500 Zn
DOCKED: ATOM     30  O1  DVT A 531     -16.688 -16.539 -29.627 +0.03 -0.06    -0.750 OA
DOCKED: ATOM     31  O17 DVT A 531     -19.340 -13.067 -28.665 +0.03 -0.01    -0.750 OA
DOCKED: ATOM     32  V4  DVT A 531     -19.175 -13.884 -26.848 +0.01 -0.07    +1.500 Zn
DOCKED: ATOM     33  O13 DVT A 531     -18.344 -14.866 -25.567 +0.00 +0.06    -0.750 OA
DOCKED: ATOM     34  O12 DVT A 531     -20.681 -14.395 -26.598 +0.01 +0.03    -0.750 OA
DOCKED: ATOM     35  O9  DVT A 531     -18.686 -15.333 -28.119 +0.02 -0.02    -0.750 OA
DOCKED: ATOM     36  V3  DVT A 531     -19.491 -14.670 -29.836 +0.14 +0.31    +1.500 Zn
DOCKED: ATOM     37  O3  DVT A 531     -18.900 -16.064 -30.837 +0.05 -0.46    -0.750 OA
DOCKED: ATOM     38  O10 DVT A 531     -20.995 -15.200 -29.539 +0.04 -0.14    -0.750 OA
DOCKED: ENDROOT
DOCKED: TORSDOF 0
DOCKED: TER
DOCKED: ENDMDL
________________________________________________________________________________


	BEGINNING GENETIC ALGORITHM DOCKING 6 of 50
Run: 6 Seed: 2031843460 842252007 [ Run 6 of 50 GA/GALS ]
Beginning LAMARCKIAN GENETIC ALGORITHM (LGA), with a maximum of 2500000 energy evaluations.

Final-Value: -0.787


	FINAL GENETIC ALGORITHM DOCKED STATE
	_______________________________________________


Detailed state:  trans -17.729 -13.675 -28.698 quatxyzw 0.549894 -0.106041 0.178995 0.808908 center 38.166 -0.098 117.777 ntor 0
State:	-17.729 -13.675 -28.698   0.935 -0.180  0.304 72.021  

DOCKED: MODEL        6
DOCKED: USER    Run = 6
DOCKED: USER    DPF = atp_pocket.dpf
DOCKED: USER  
DOCKED: USER    Estimated Free Energy of Binding    =   -0.79 kcal/mol  [=(1)+(2)+(3)-(4)]
DOCKED: USER    Estimated Inhibition Constant, Ki   =  264.72 mM (millimolar)  [Temperature = 298.15 K]
DOCKED: USER    
DOCKED: USER    (1) Final Intermolecular Energy     =   -0.79 kcal/mol
DOCKED: USER        vdW + Hbond + desolv Energy     =   +0.46 kcal/mol
DOCKED: USER        Electrostatic Energy            =   -1.24 kcal/mol
DOCKED: USER    (2) Final Total Internal Energy     =   +0.00 kcal/mol
DOCKED: USER    (3) Torsional Free Energy           =   +0.00 kcal/mol
DOCKED: USER    (4) Unbound System's Energy  [=(2)] =   +0.00 kcal/mol
DOCKED: USER    
DOCKED: USER    
DOCKED: USER    NEWDPF move ../ligands/decavanadate.pdbqt
DOCKED: USER    NEWDPF about 38.166447 -0.097658 117.776763
DOCKED: USER    NEWDPF tran0 -17.728736 -13.675089 -28.697728
DOCKED: USER    NEWDPF quaternion0 0.549894 -0.106041 0.178995 0.808908
DOCKED: USER    NEWDPF axisangle0 0.935298 -0.180362 0.304446 72.021176
DOCKED: USER    NEWDPF quat0 0.935298 -0.180362 0.304446 72.021176
DOCKED: USER  keepresnum = 1 
DOCKED: USER  
DOCKED: USER                              x       y       z     vdW  Elec       q    Type
DOCKED: USER                           _______ _______ _______ _____ _____    ______ ____
DOCKED: ROOT
DOCKED: ATOM      1  O28 DVT A 531     -18.852 -11.988 -33.188 -0.40 -0.64    -0.750 OA
DOCKED: ATOM      2  V10 DVT A 531     -18.450 -12.869 -31.939 +0.26 +0.66    +1.500 Zn
DOCKED: ATOM      3  O18 DVT A 531     -19.943 -13.819 -31.397 +0.04 -0.29    -0.750 OA
DOCKED: ATOM      4  O15 DVT A 531     -17.918 -14.495 -32.625 +0.03 -0.66    -0.750 OA
DOCKED: ATOM      5  V1  DVT A 531     -17.314 -15.721 -31.399 +0.17 +0.80    +1.500 Zn
DOCKED: ATOM      6  O5  DVT A 531     -16.947 -17.040 -32.274 -0.48 -0.69    -0.750 OA
DOCKED: ATOM      7  O27 DVT A 531     -16.619 -12.440 -31.788 +0.04 -0.22    -0.750 OA
DOCKED: ATOM      8  V9  DVT A 531     -15.701 -13.281 -30.439 +0.10 +0.05    +1.500 Zn
DOCKED: ATOM      9  O2  DVT A 531     -17.776 -13.965 -29.975 +0.04 -0.10    -0.750 OA
DOCKED: ATOM     10  O4  DVT A 531     -15.645 -14.861 -31.302 +0.05 -0.09    -0.750 OA
DOCKED: ATOM     11  O8  DVT A 531     -15.538 -14.240 -28.684 +0.02 +0.04    -0.750 OA
DOCKED: ATOM     12  O26 DVT A 531     -14.263 -12.583 -30.586 +0.04 +0.05    -0.750 OA
DOCKED: ATOM     13  O24 DVT A 531     -16.393 -11.877 -29.168 +0.02 +0.03    -0.750 OA
DOCKED: ATOM     14  V7  DVT A 531     -15.551 -12.667 -27.500 +0.00 -0.14    +1.500 Zn
DOCKED: ATOM     15  O11 DVT A 531     -15.475 -13.710 -26.054 +0.00 +0.08    -0.750 OA
DOCKED: ATOM     16  O25 DVT A 531     -14.208 -11.851 -27.824 +0.00 +0.09    -0.750 OA
DOCKED: ATOM     17  O21 DVT A 531     -16.389 -11.329 -26.552 +0.00 +0.08    -0.750 OA
DOCKED: ATOM     18  V6  DVT A 531     -18.139 -11.617 -25.960 +0.00 -0.15    +1.500 Zn
DOCKED: ATOM     19  O19 DVT A 531     -19.848 -12.373 -26.168 +0.00 +0.06    -0.750 OA
DOCKED: ATOM     20  O22 DVT A 531     -18.303 -10.247 -25.144 +0.00 +0.09    -0.750 OA
DOCKED: ATOM     21  O6  DVT A 531     -17.603 -12.856 -24.698 +0.00 +0.08    -0.750 OA
DOCKED: ATOM     22  V8  DVT A 531     -18.278 -12.120 -28.987 +0.04 -0.02    +1.500 Zn
DOCKED: ATOM     23  O20 DVT A 531     -18.644 -10.953 -27.849 +0.00 +0.06    -0.750 OA
DOCKED: ATOM     24  O23 DVT A 531     -18.662 -11.480 -30.484 +0.05 -0.05    -0.750 OA
DOCKED: ATOM     25  O16 DVT A 531     -17.681 -13.363 -27.410 +0.01 +0.04    -0.750 OA
DOCKED: ATOM     26  V5  DVT A 531     -17.071 -14.488 -25.428 +0.00 -0.13    +1.500 Zn
DOCKED: ATOM     27  O14 DVT A 531     -16.633 -15.399 -24.177 +0.00 +0.08    -0.750 OA
DOCKED: ATOM     28  O7  DVT A 531     -16.770 -15.870 -26.886 +0.01 +0.05    -0.750 OA
DOCKED: ATOM     29  V2  DVT A 531     -17.206 -15.225 -28.391 +0.04 +0.01    +1.500 Zn
DOCKED: ATOM     30  O1  DVT A 531     -16.881 -16.436 -29.511 +0.03 -0.07    -0.750 OA
DOCKED: ATOM     31  O17 DVT A 531     -19.876 -13.195 -28.777 +0.03 -0.02    -0.750 OA
DOCKED: ATOM     32  V4  DVT A 531     -19.755 -13.971 -26.938 +0.01 -0.06    +1.500 Zn
DOCKED: ATOM     33  O13 DVT A 531     -18.925 -14.861 -25.591 +0.00 +0.05    -0.750 OA
DOCKED: ATOM     34  O12 DVT A 531     -21.224 -14.607 -26.771 +0.01 +0.03    -0.750 OA
DOCKED: ATOM     35  O9  DVT A 531     -19.066 -15.388 -28.150 +0.02 -0.03    -0.750 OA
DOCKED: ATOM     36  V3  DVT A 531     -19.815 -14.820 -29.925 +0.15 +0.36    +1.500 Zn
DOCKED: ATOM     37  O3  DVT A 531     -19.045 -16.170 -30.862 +0.07 -0.49    -0.750 OA
DOCKED: ATOM     38  O10 DVT A 531     -21.283 -15.475 -29.710 +0.04 -0.17    -0.750 OA
DOCKED: ENDROOT
DOCKED: TORSDOF 0
DOCKED: TER
DOCKED: ENDMDL
________________________________________________________________________________


	BEGINNING GENETIC ALGORITHM DOCKING 7 of 50
Run: 7 Seed: 1769019218 765921914 [ Run 7 of 50 GA/GALS ]
Beginning LAMARCKIAN GENETIC ALGORITHM (LGA), with a maximum of 2500000 energy evaluations.

Final-Value: -0.667


	FINAL GENETIC ALGORITHM DOCKED STATE
	_______________________________________________


Detailed state:  trans -18.757 -18.141 -27.670 quatxyzw 0.005939 0.365191 0.502478 0.783655 center 38.166 -0.098 117.777 ntor 0
State:	-18.757 -18.141 -27.670   0.010  0.588  0.809 76.807  

DOCKED: MODEL        7
DOCKED: USER    Run = 7
DOCKED: USER    DPF = atp_pocket.dpf
DOCKED: USER  
DOCKED: USER    Estimated Free Energy of Binding    =   -0.67 kcal/mol  [=(1)+(2)+(3)-(4)]
DOCKED: USER    Estimated Inhibition Constant, Ki   =  324.67 mM (millimolar)  [Temperature = 298.15 K]
DOCKED: USER    
DOCKED: USER    (1) Final Intermolecular Energy     =   -0.67 kcal/mol
DOCKED: USER        vdW + Hbond + desolv Energy     =   +0.24 kcal/mol
DOCKED: USER        Electrostatic Energy            =   -0.91 kcal/mol
DOCKED: USER    (2) Final Total Internal Energy     =   +0.00 kcal/mol
DOCKED: USER    (3) Torsional Free Energy           =   +0.00 kcal/mol
DOCKED: USER    (4) Unbound System's Energy  [=(2)] =   +0.00 kcal/mol
DOCKED: USER    
DOCKED: USER    
DOCKED: USER    NEWDPF move ../ligands/decavanadate.pdbqt
DOCKED: USER    NEWDPF about 38.166447 -0.097658 117.776763
DOCKED: USER    NEWDPF tran0 -18.757329 -18.141131 -27.669686
DOCKED: USER    NEWDPF quaternion0 0.005939 0.365191 0.502478 0.783655
DOCKED: USER    NEWDPF axisangle0 0.009561 0.587883 0.808889 76.807010
DOCKED: USER    NEWDPF quat0 0.009561 0.587883 0.808889 76.807010
DOCKED: USER  keepresnum = 1 
DOCKED: USER  
DOCKED: USER                              x       y       z     vdW  Elec       q    Type
DOCKED: USER                           _______ _______ _______ _____ _____    ______ ____
DOCKED: ROOT
DOCKED: ATOM      1  O28 DVT A 531     -15.219 -14.714 -27.582 +0.01 +0.06    -0.750 OA
DOCKED: ATOM      2  V10 DVT A 531     -16.062 -16.042 -27.739 +0.02 -0.09    +1.500 Zn
DOCKED: ATOM      3  O18 DVT A 531     -16.479 -16.255 -29.530 +0.03 -0.04    -0.750 OA
DOCKED: ATOM      4  O15 DVT A 531     -14.836 -17.376 -28.077 +0.01 +0.07    -0.750 OA
DOCKED: ATOM      5  V1  DVT A 531     -15.522 -19.072 -28.234 +0.01 -0.13    +1.500 Zn
DOCKED: ATOM      6  O5  DVT A 531     -14.236 -20.014 -28.549 +0.00 +0.10    -0.750 OA
DOCKED: ATOM      7  O27 DVT A 531     -16.087 -16.648 -25.953 +0.00 +0.07    -0.750 OA
DOCKED: ATOM      8  V9  DVT A 531     -16.966 -18.231 -25.649 +0.00 -0.13    +1.500 Zn
DOCKED: ATOM      9  O2  DVT A 531     -17.472 -17.918 -27.802 +0.01 +0.02    -0.750 OA
DOCKED: ATOM     10  O4  DVT A 531     -15.653 -19.234 -26.365 +0.00 +0.07    -0.750 OA
DOCKED: ATOM     11  O8  DVT A 531     -18.294 -19.675 -26.073 +0.00 +0.05    -0.750 OA
DOCKED: ATOM     12  O26 DVT A 531     -16.850 -18.328 -24.050 +0.00 +0.07    -0.750 OA
DOCKED: ATOM     13  O24 DVT A 531     -18.695 -17.195 -25.587 +0.00 +0.05    -0.750 OA
DOCKED: ATOM     14  V7  DVT A 531     -19.900 -18.808 -25.336 +0.00 -0.10    +1.500 Zn
DOCKED: ATOM     15  O11 DVT A 531     -20.923 -20.171 -25.865 +0.00 +0.05    -0.750 OA
DOCKED: ATOM     16  O25 DVT A 531     -19.667 -18.703 -23.752 +0.00 +0.07    -0.750 OA
DOCKED: ATOM     17  O21 DVT A 531     -21.324 -17.643 -25.420 +0.00 +0.05    -0.750 OA
DOCKED: ATOM     18  V6  DVT A 531     -22.030 -17.215 -27.097 +0.05 -0.01    +1.500 Zn
DOCKED: ATOM     19  O19 DVT A 531     -21.833 -16.912 -28.942 +0.04 -0.10    -0.750 OA
DOCKED: ATOM     20  O22 DVT A 531     -23.248 -16.311 -26.579 +0.01 +0.03    -0.750 OA
DOCKED: ATOM     21  O6  DVT A 531     -22.756 -18.900 -27.321 +0.02 +0.01    -0.750 OA
DOCKED: ATOM     22  V8  DVT A 531     -19.047 -16.525 -27.339 +0.03 -0.01    +1.500 Zn
DOCKED: ATOM     23  O20 DVT A 531     -20.532 -15.795 -27.112 +0.02 +0.01    -0.750 OA
DOCKED: ATOM     24  O23 DVT A 531     -17.892 -15.316 -27.280 +0.01 +0.02    -0.750 OA
DOCKED: ATOM     25  O16 DVT A 531     -20.059 -18.351 -27.527 +0.02 -0.00    -0.750 OA
DOCKED: ATOM     26  V5  DVT A 531     -21.486 -20.224 -27.661 +0.03 -0.03    +1.500 Zn
DOCKED: ATOM     27  O14 DVT A 531     -22.317 -21.594 -27.801 +0.01 +0.03    -0.750 OA
DOCKED: ATOM     28  O7  DVT A 531     -19.642 -20.986 -28.040 +0.01 +0.02    -0.750 OA
DOCKED: ATOM     29  V2  DVT A 531     -18.489 -19.746 -28.021 +0.02 -0.03    +1.500 Zn
DOCKED: ATOM     30  O1  DVT A 531     -17.013 -20.498 -28.307 +0.01 +0.05    -0.750 OA
DOCKED: ATOM     31  O17 DVT A 531     -19.127 -16.675 -29.270 +0.03 -0.15    -0.750 OA
DOCKED: ATOM     32  V4  DVT A 531     -20.596 -17.979 -29.640 +0.17 +0.39    +1.500 Zn
DOCKED: ATOM     33  O13 DVT A 531     -21.470 -19.557 -29.438 +0.05 -0.08    -0.750 OA
DOCKED: ATOM     34  O12 DVT A 531     -20.755 -17.825 -31.235 -0.36 -0.79    -0.750 OA
DOCKED: ATOM     35  O9  DVT A 531     -18.919 -19.045 -29.714 +0.03 -0.12    -0.750 OA
DOCKED: ATOM     36  V3  DVT A 531     -17.531 -17.620 -29.992 +0.09 +0.30    +1.500 Zn
DOCKED: ATOM     37  O3  DVT A 531     -16.122 -18.764 -29.975 +0.02 +0.00    -0.750 OA
DOCKED: ATOM     38  O10 DVT A 531     -17.729 -17.497 -31.597 -0.15 -0.70    -0.750 OA
DOCKED: ENDROOT
DOCKED: TORSDOF 0
DOCKED: TER
DOCKED: ENDMDL
________________________________________________________________________________


	BEGINNING GENETIC ALGORITHM DOCKING 8 of 50
Run: 8 Seed: 1023739912 112651591 [ Run 8 of 50 GA/GALS ]
Beginning LAMARCKIAN GENETIC ALGORITHM (LGA), with a maximum of 2500000 energy evaluations.

Final-Value: -0.817


	FINAL GENETIC ALGORITHM DOCKED STATE
	_______________________________________________


Detailed state:  trans -16.688 -14.506 -29.951 quatxyzw -0.052147 0.319999 -0.175844 0.929495 center 38.166 -0.098 117.777 ntor 0
State:	-16.688 -14.506 -29.951  -0.141  0.868 -0.477 43.288  

DOCKED: MODEL        8
DOCKED: USER    Run = 8
DOCKED: USER    DPF = atp_pocket.dpf
DOCKED: USER  
DOCKED: USER    Estimated Free Energy of Binding    =   -0.82 kcal/mol  [=(1)+(2)+(3)-(4)]
DOCKED: USER    Estimated Inhibition Constant, Ki   =  251.87 mM (millimolar)  [Temperature = 298.15 K]
DOCKED: USER    
DOCKED: USER    (1) Final Intermolecular Energy     =   -0.82 kcal/mol
DOCKED: USER        vdW + Hbond + desolv Energy     =   +0.69 kcal/mol
DOCKED: USER        Electrostatic Energy            =   -1.51 kcal/mol
DOCKED: USER    (2) Final Total Internal Energy     =   +0.00 kcal/mol
DOCKED: USER    (3) Torsional Free Energy           =   +0.00 kcal/mol
DOCKED: USER    (4) Unbound System's Energy  [=(2)] =   +0.00 kcal/mol
DOCKED: USER    
DOCKED: USER    
DOCKED: USER    NEWDPF move ../ligands/decavanadate.pdbqt
DOCKED: USER    NEWDPF about 38.166447 -0.097658 117.776763
DOCKED: USER    NEWDPF tran0 -16.688392 -14.505742 -29.951277
DOCKED: USER    NEWDPF quaternion0 -0.052147 0.319999 -0.175844 0.929495
DOCKED: USER    NEWDPF axisangle0 -0.141383 0.867592 -0.476754 43.287641
DOCKED: USER    NEWDPF quat0 -0.141383 0.867592 -0.476754 43.287641
DOCKED: USER  keepresnum = 1 
DOCKED: USER  
DOCKED: USER                              x       y       z     vdW  Elec       q    Type
DOCKED: USER                           _______ _______ _______ _____ _____    ______ ____
DOCKED: ROOT
DOCKED: ATOM      1  O28 DVT A 531     -19.284 -10.680 -31.655 +0.07 -0.07    -0.750 OA
DOCKED: ATOM      2  V10 DVT A 531     -18.152 -11.718 -31.278 +0.17 +0.28    +1.500 Zn
DOCKED: ATOM      3  O18 DVT A 531     -17.804 -12.762 -32.766 -0.03 -0.62    -0.750 OA
DOCKED: ATOM      4  O15 DVT A 531     -16.560 -10.906 -31.729 +0.04 -0.10    -0.750 OA
DOCKED: ATOM      5  V1  DVT A 531     -15.038 -11.855 -31.332 +0.12 +0.04    +1.500 Zn
DOCKED: ATOM      6  O5  DVT A 531     -13.816 -10.921 -31.856 +0.04 +0.05    -0.750 OA
DOCKED: ATOM      7  O27 DVT A 531     -17.797 -11.209 -29.496 +0.03 +0.02    -0.750 OA
DOCKED: ATOM      8  V9  DVT A 531     -16.485 -12.157 -28.631 +0.03 -0.08    +1.500 Zn
DOCKED: ATOM      9  O2  DVT A 531     -16.619 -13.330 -30.527 +0.05 -0.08    -0.750 OA
DOCKED: ATOM     10  O4  DVT A 531     -15.147 -11.348 -29.524 +0.02 +0.06    -0.750 OA
DOCKED: ATOM     11  O8  DVT A 531     -15.308 -13.754 -28.325 +0.01 +0.05    -0.750 OA
DOCKED: ATOM     12  O26 DVT A 531     -16.571 -11.505 -27.166 +0.00 +0.07    -0.750 OA
DOCKED: ATOM     13  O24 DVT A 531     -17.859 -13.575 -28.218 +0.02 +0.01    -0.750 OA
DOCKED: ATOM     14  V7  DVT A 531     -16.578 -14.848 -27.293 +0.01 -0.09    +1.500 Zn
DOCKED: ATOM     15  O11 DVT A 531     -15.402 -16.187 -27.196 +0.00 +0.06    -0.750 OA
DOCKED: ATOM     16  O25 DVT A 531     -16.833 -14.062 -25.918 +0.00 +0.07    -0.750 OA
DOCKED: ATOM     17  O21 DVT A 531     -17.994 -16.015 -27.138 +0.01 +0.02    -0.750 OA
DOCKED: ATOM     18  V6  DVT A 531     -18.343 -17.189 -28.550 +0.05 +0.10    +1.500 Zn
DOCKED: ATOM     19  O19 DVT A 531     -18.359 -17.605 -30.384 +0.01 -0.30    -0.750 OA
DOCKED: ATOM     20  O22 DVT A 531     -19.539 -17.995 -27.852 +0.02 -0.02    -0.750 OA
DOCKED: ATOM     21  O6  DVT A 531     -16.831 -18.196 -28.204 +0.01 +0.02    -0.750 OA
DOCKED: ATOM     22  V8  DVT A 531     -18.358 -14.411 -29.860 +0.12 +0.25    +1.500 Zn
DOCKED: ATOM     23  O20 DVT A 531     -19.405 -15.592 -29.314 +0.03 -0.14    -0.750 OA
DOCKED: ATOM     24  O23 DVT A 531     -19.297 -13.138 -30.405 +0.05 -0.13    -0.750 OA
DOCKED: ATOM     25  O16 DVT A 531     -16.775 -15.691 -29.363 +0.03 -0.05    -0.750 OA
DOCKED: ATOM     26  V5  DVT A 531     -15.239 -17.343 -28.673 +0.03 -0.11    +1.500 Zn
DOCKED: ATOM     27  O14 DVT A 531     -14.066 -18.370 -28.277 +0.00 +0.09    -0.750 OA
DOCKED: ATOM     28  O7  DVT A 531     -14.067 -15.888 -29.469 +0.02 +0.09    -0.750 OA
DOCKED: ATOM     29  V2  DVT A 531     -15.032 -14.626 -30.057 +0.08 -0.05    +1.500 Zn
DOCKED: ATOM     30  O1  DVT A 531     -13.958 -13.477 -30.650 +0.04 +0.07    -0.750 OA
DOCKED: ATOM     31  O17 DVT A 531     -17.984 -15.183 -31.598 +0.02 -0.48    -0.750 OA
DOCKED: ATOM     32  V4  DVT A 531     -16.978 -16.869 -31.224 +0.15 +0.67    +1.500 Zn
DOCKED: ATOM     33  O13 DVT A 531     -15.656 -17.848 -30.455 +0.03 -0.00    -0.750 OA
DOCKED: ATOM     34  O12 DVT A 531     -16.957 -17.550 -32.682 -0.50 -0.76    -0.750 OA
DOCKED: ATOM     35  O9  DVT A 531     -15.585 -15.508 -31.625 +0.05 -0.10    -0.750 OA
DOCKED: ATOM     36  V3  DVT A 531     -16.642 -14.105 -32.598 +0.28 +0.95    +1.500 Zn
DOCKED: ATOM     37  O3  DVT A 531     -15.241 -12.972 -32.814 +0.02 -0.25    -0.750 OA
DOCKED: ATOM     38  O10 DVT A 531     -16.598 -14.830 -34.048 -0.44 -1.06    -0.750 OA
DOCKED: ENDROOT
DOCKED: TORSDOF 0
DOCKED: TER
DOCKED: ENDMDL
________________________________________________________________________________


	BEGINNING GENETIC ALGORITHM DOCKING 9 of 50
Run: 9 Seed: 1061290406 1504954483 [ Run 9 of 50 GA/GALS ]
Beginning LAMARCKIAN GENETIC ALGORITHM (LGA), with a maximum of 2500000 energy evaluations.

Final-Value: -0.804


	FINAL GENETIC ALGORITHM DOCKED STATE
	_______________________________________________


Detailed state:  trans -17.870 -13.247 -28.852 quatxyzw -0.570065 0.086704 -0.188697 -0.794923 center 38.166 -0.098 117.777 ntor 0
State:	-17.870 -13.247 -28.852  -0.940  0.143 -0.311 -74.704  

DOCKED: MODEL        9
DOCKED: USER    Run = 9
DOCKED: USER    DPF = atp_pocket.dpf
DOCKED: USER  
DOCKED: USER    Estimated Free Energy of Binding    =   -0.80 kcal/mol  [=(1)+(2)+(3)-(4)]
DOCKED: USER    Estimated Inhibition Constant, Ki   =  257.58 mM (millimolar)  [Temperature = 298.15 K]
DOCKED: USER    
DOCKED: USER    (1) Final Intermolecular Energy     =   -0.80 kcal/mol
DOCKED: USER        vdW + Hbond + desolv Energy     =   +0.54 kcal/mol
DOCKED: USER        Electrostatic Energy            =   -1.34 kcal/mol
DOCKED: USER    (2) Final Total Internal Energy     =   +0.00 kcal/mol
DOCKED: USER    (3) Torsional Free Energy           =   +0.00 kcal/mol
DOCKED: USER    (4) Unbound System's Energy  [=(2)] =   +0.00 kcal/mol
DOCKED: USER    
DOCKED: USER    
DOCKED: USER    NEWDPF move ../ligands/decavanadate.pdbqt
DOCKED: USER    NEWDPF about 38.166447 -0.097658 117.776763
DOCKED: USER    NEWDPF tran0 -17.870068 -13.247404 -28.851669
DOCKED: USER    NEWDPF quaternion0 -0.570065 0.086704 -0.188697 -0.794923
DOCKED: USER    NEWDPF axisangle0 -0.939599 0.142908 -0.311017 -74.704098
DOCKED: USER    NEWDPF quat0 -0.939599 0.142908 -0.311017 -74.704098
DOCKED: USER  keepresnum = 1 
DOCKED: USER  
DOCKED: USER                              x       y       z     vdW  Elec       q    Type
DOCKED: USER                           _______ _______ _______ _____ _____    ______ ____
DOCKED: ROOT
DOCKED: ATOM      1  O28 DVT A 531     -18.857 -11.825 -33.464 -0.44 -0.78    -0.750 OA
DOCKED: ATOM      2  V10 DVT A 531     -18.491 -12.631 -32.155 +0.29 +0.74    +1.500 Zn
DOCKED: ATOM      3  O18 DVT A 531     -19.997 -13.558 -31.607 +0.04 -0.29    -0.750 OA
DOCKED: ATOM      4  O15 DVT A 531     -17.931 -14.290 -32.730 +0.01 -0.66    -0.750 OA
DOCKED: ATOM      5  V1  DVT A 531     -17.361 -15.442 -31.417 +0.18 +0.77    +1.500 Zn
DOCKED: ATOM      6  O5  DVT A 531     -16.961 -16.806 -32.204 -0.43 -0.67    -0.750 OA
DOCKED: ATOM      7  O27 DVT A 531     -16.668 -12.184 -31.971 +0.04 -0.24    -0.750 OA
DOCKED: ATOM      8  V9  DVT A 531     -15.789 -12.942 -30.548 +0.10 +0.07    +1.500 Zn
DOCKED: ATOM      9  O2  DVT A 531     -17.875 -13.610 -30.111 +0.04 -0.10    -0.750 OA
DOCKED: ATOM     10  O4  DVT A 531     -15.699 -14.567 -31.317 +0.05 -0.10    -0.750 OA
DOCKED: ATOM     11  O8  DVT A 531     -15.679 -13.798 -28.736 +0.02 +0.04    -0.750 OA
DOCKED: ATOM     12  O26 DVT A 531     -14.350 -12.245 -30.689 +0.04 +0.04    -0.750 OA
DOCKED: ATOM     13  O24 DVT A 531     -16.527 -11.471 -29.381 +0.02 +0.03    -0.750 OA
DOCKED: ATOM     14  V7  DVT A 531     -15.735 -12.161 -27.645 +0.00 -0.14    +1.500 Zn
DOCKED: ATOM     15  O11 DVT A 531     -15.702 -13.119 -26.140 +0.00 +0.08    -0.750 OA
DOCKED: ATOM     16  O25 DVT A 531     -14.386 -11.357 -27.973 +0.00 +0.09    -0.750 OA
DOCKED: ATOM     17  O21 DVT A 531     -16.609 -10.775 -26.802 +0.00 +0.08    -0.750 OA
DOCKED: ATOM     18  V6  DVT A 531     -18.375 -11.039 -26.251 +0.00 -0.15    +1.500 Zn
DOCKED: ATOM     19  O19 DVT A 531     -20.074 -11.816 -26.468 +0.00 +0.07    -0.750 OA
DOCKED: ATOM     20  O22 DVT A 531     -18.571  -9.626 -25.520 +0.00 +0.09    -0.750 OA
DOCKED: ATOM     21  O6  DVT A 531     -17.875 -12.201 -24.903 +0.00 +0.08    -0.750 OA
DOCKED: ATOM     22  V8  DVT A 531     -18.416 -11.714 -29.247 +0.05 -0.01    +1.500 Zn
DOCKED: ATOM     23  O20 DVT A 531     -18.823 -10.487 -28.189 +0.00 +0.06    -0.750 OA
DOCKED: ATOM     24  O23 DVT A 531     -18.755 -11.163 -30.789 +0.05 -0.05    -0.750 OA
DOCKED: ATOM     25  O16 DVT A 531     -17.865 -12.863 -27.583 +0.01 +0.04    -0.750 OA
DOCKED: ATOM     26  V5  DVT A 531     -17.314 -13.870 -25.522 +0.00 -0.14    +1.500 Zn
DOCKED: ATOM     27  O14 DVT A 531     -16.912 -14.705 -24.207 +0.00 +0.08    -0.750 OA
DOCKED: ATOM     28  O7  DVT A 531     -16.961 -15.330 -26.889 +0.01 +0.05    -0.750 OA
DOCKED: ATOM     29  V2  DVT A 531     -17.352 -14.775 -28.441 +0.04 +0.01    +1.500 Zn
DOCKED: ATOM     30  O1  DVT A 531     -16.986 -16.045 -29.479 +0.03 -0.07    -0.750 OA
DOCKED: ATOM     31  O17 DVT A 531     -20.016 -12.785 -29.026 +0.03 -0.02    -0.750 OA
DOCKED: ATOM     32  V4  DVT A 531     -19.951 -13.454 -27.143 +0.01 -0.07    +1.500 Zn
DOCKED: ATOM     33  O13 DVT A 531     -19.160 -14.262 -25.722 +0.00 +0.05    -0.750 OA
DOCKED: ATOM     34  O12 DVT A 531     -21.422 -14.089 -26.987 +0.01 +0.03    -0.750 OA
DOCKED: ATOM     35  O9  DVT A 531     -19.217 -14.935 -28.250 +0.03 -0.03    -0.750 OA
DOCKED: ATOM     36  V3  DVT A 531     -19.911 -14.472 -30.077 +0.17 +0.35    +1.500 Zn
DOCKED: ATOM     37  O3  DVT A 531     -19.107 -15.869 -30.911 +0.08 -0.47    -0.750 OA
DOCKED: ATOM     38  O10 DVT A 531     -21.383 -15.122 -29.872 +0.04 -0.17    -0.750 OA
DOCKED: ENDROOT
DOCKED: TORSDOF 0
DOCKED: TER
DOCKED: ENDMDL
________________________________________________________________________________


	BEGINNING GENETIC ALGORITHM DOCKING 10 of 50
Run: 10 Seed: 1514470708 2127484739 [ Run 10 of 50 GA/GALS ]
Beginning LAMARCKIAN GENETIC ALGORITHM (LGA), with a maximum of 2500000 energy evaluations.

Final-Value: -0.693


	FINAL GENETIC ALGORITHM DOCKED STATE
	_______________________________________________


Detailed state:  trans -18.720 -18.214 -27.684 quatxyzw -0.529106 0.046493 -0.716942 0.451530 center 38.166 -0.098 117.777 ntor 0
State:	-18.720 -18.214 -27.684  -0.593  0.052 -0.804 126.316  

DOCKED: MODEL       10
DOCKED: USER    Run = 10
DOCKED: USER    DPF = atp_pocket.dpf
DOCKED: USER  
DOCKED: USER    Estimated Free Energy of Binding    =   -0.69 kcal/mol  [=(1)+(2)+(3)-(4)]
DOCKED: USER    Estimated Inhibition Constant, Ki   =  310.68 mM (millimolar)  [Temperature = 298.15 K]
DOCKED: USER    
DOCKED: USER    (1) Final Intermolecular Energy     =   -0.69 kcal/mol
DOCKED: USER        vdW + Hbond + desolv Energy     =   +0.23 kcal/mol
DOCKED: USER        Electrostatic Energy            =   -0.92 kcal/mol
DOCKED: USER    (2) Final Total Internal Energy     =   +0.00 kcal/mol
DOCKED: USER    (3) Torsional Free Energy           =   +0.00 kcal/mol
DOCKED: USER    (4) Unbound System's Energy  [=(2)] =   +0.00 kcal/mol
DOCKED: USER    
DOCKED: USER    
DOCKED: USER    NEWDPF move ../ligands/decavanadate.pdbqt
DOCKED: USER    NEWDPF about 38.166447 -0.097658 117.776763
DOCKED: USER    NEWDPF tran0 -18.719672 -18.214218 -27.684113
DOCKED: USER    NEWDPF quaternion0 -0.529106 0.046493 -0.716942 0.451530
DOCKED: USER    NEWDPF axisangle0 -0.592999 0.052108 -0.803516 126.316187
DOCKED: USER    NEWDPF quat0 -0.592999 0.052108 -0.803516 126.316187
DOCKED: USER  keepresnum = 1 
DOCKED: USER  
DOCKED: USER                              x       y       z     vdW  Elec       q    Type
DOCKED: USER                           _______ _______ _______ _____ _____    ______ ____
DOCKED: ROOT
DOCKED: ATOM      1  O28 DVT A 531     -22.283 -21.615 -27.567 +0.01 +0.03    -0.750 OA
DOCKED: ATOM      2  V10 DVT A 531     -21.443 -20.276 -27.588 +0.03 -0.03    +1.500 Zn
DOCKED: ATOM      3  O18 DVT A 531     -21.492 -19.590 -29.307 +0.05 -0.07    -0.750 OA
DOCKED: ATOM      4  O15 DVT A 531     -22.647 -18.926 -27.235 +0.02 +0.01    -0.750 OA
DOCKED: ATOM      5  V1  DVT A 531     -21.941 -17.234 -27.121 +0.05 -0.01    +1.500 Zn
DOCKED: ATOM      6  O5  DVT A 531     -23.216 -16.269 -26.833 +0.01 +0.02    -0.750 OA
DOCKED: ATOM      7  O27 DVT A 531     -20.928 -20.161 -25.777 +0.00 +0.05    -0.750 OA
DOCKED: ATOM      8  V9  DVT A 531     -19.923 -18.697 -25.313 +0.00 -0.10    +1.500 Zn
DOCKED: ATOM      9  O2  DVT A 531     -20.005 -18.421 -27.529 +0.01 -0.00    -0.750 OA
DOCKED: ATOM     10  O4  DVT A 531     -21.324 -17.568 -25.375 +0.00 +0.05    -0.750 OA
DOCKED: ATOM     11  O8  DVT A 531     -18.679 -17.165 -25.680 +0.00 +0.05    -0.750 OA
DOCKED: ATOM     12  O26 DVT A 531     -19.619 -19.027 -23.772 +0.00 +0.07    -0.750 OA
DOCKED: ATOM     13  O24 DVT A 531     -18.290 -19.677 -25.977 +0.00 +0.05    -0.750 OA
DOCKED: ATOM     14  V7  DVT A 531     -16.983 -18.163 -25.641 +0.00 -0.13    +1.500 Zn
DOCKED: ATOM     15  O11 DVT A 531     -16.064 -16.687 -26.046 +0.00 +0.07    -0.750 OA
DOCKED: ATOM     16  O25 DVT A 531     -16.805 -18.686 -24.135 +0.00 +0.07    -0.750 OA
DOCKED: ATOM     17  O21 DVT A 531     -15.688 -19.235 -26.394 +0.00 +0.07    -0.750 OA
DOCKED: ATOM     18  V6  DVT A 531     -15.460 -19.191 -28.248 +0.01 -0.13    +1.500 Zn
DOCKED: ATOM     19  O19 DVT A 531     -16.141 -19.001 -29.990 +0.02 +0.01    -0.750 OA
DOCKED: ATOM     20  O22 DVT A 531     -14.196 -20.174 -28.319 +0.00 +0.10    -0.750 OA
DOCKED: ATOM     21  O6  DVT A 531     -14.733 -17.492 -28.208 +0.01 +0.07    -0.750 OA
DOCKED: ATOM     22  V8  DVT A 531     -18.436 -19.854 -27.872 +0.02 -0.04    +1.500 Zn
DOCKED: ATOM     23  O20 DVT A 531     -16.980 -20.588 -28.239 +0.01 +0.05    -0.750 OA
DOCKED: ATOM     24  O23 DVT A 531     -19.594 -21.059 -27.829 +0.01 +0.03    -0.750 OA
DOCKED: ATOM     25  O16 DVT A 531     -17.416 -18.023 -27.837 +0.01 +0.02    -0.750 OA
DOCKED: ATOM     26  V5  DVT A 531     -15.981 -16.152 -27.849 +0.02 -0.08    +1.500 Zn
DOCKED: ATOM     27  O14 DVT A 531     -15.146 -14.776 -27.841 +0.01 +0.06    -0.750 OA
DOCKED: ATOM     28  O7  DVT A 531     -17.819 -15.354 -27.521 +0.01 +0.02    -0.750 OA
DOCKED: ATOM     29  V2  DVT A 531     -18.989 -16.580 -27.524 +0.03 +0.01    +1.500 Zn
DOCKED: ATOM     30  O1  DVT A 531     -20.449 -15.809 -27.208 +0.02 +0.00    -0.750 OA
DOCKED: ATOM     31  O17 DVT A 531     -18.848 -19.199 -29.649 +0.03 -0.10    -0.750 OA
DOCKED: ATOM     32  V4  DVT A 531     -17.462 -17.813 -30.039 +0.09 +0.29    +1.500 Zn
DOCKED: ATOM     33  O13 DVT A 531     -16.487 -16.327 -29.669 +0.03 -0.05    -0.750 OA
DOCKED: ATOM     34  O12 DVT A 531     -17.726 -17.539 -31.603 -0.15 -0.69    -0.750 OA
DOCKED: ATOM     35  O9  DVT A 531     -19.046 -16.801 -29.392 +0.03 -0.16    -0.750 OA
DOCKED: ATOM     36  V3  DVT A 531     -20.527 -18.131 -29.657 +0.16 +0.38    +1.500 Zn
DOCKED: ATOM     37  O3  DVT A 531     -21.825 -17.060 -28.976 +0.04 -0.10    -0.750 OA
DOCKED: ATOM     38  O10 DVT A 531     -20.756 -17.822 -31.234 -0.36 -0.79    -0.750 OA
DOCKED: ENDROOT
DOCKED: TORSDOF 0
DOCKED: TER
DOCKED: ENDMDL
________________________________________________________________________________


	BEGINNING GENETIC ALGORITHM DOCKING 11 of 50
Run: 11 Seed: 348679843 1813210904 [ Run 11 of 50 GA/GALS ]
Beginning LAMARCKIAN GENETIC ALGORITHM (LGA), with a maximum of 2500000 energy evaluations.

Final-Value: -0.690


	FINAL GENETIC ALGORITHM DOCKED STATE
	_______________________________________________


Detailed state:  trans -18.694 -18.300 -27.700 quatxyzw 0.536576 -0.053316 0.715121 -0.444799 center 38.166 -0.098 117.777 ntor 0
State:	-18.694 -18.300 -27.700   0.599 -0.060  0.798 -127.179  

DOCKED: MODEL       11
DOCKED: USER    Run = 11
DOCKED: USER    DPF = atp_pocket.dpf
DOCKED: USER  
DOCKED: USER    Estimated Free Energy of Binding    =   -0.69 kcal/mol  [=(1)+(2)+(3)-(4)]
DOCKED: USER    Estimated Inhibition Constant, Ki   =  312.09 mM (millimolar)  [Temperature = 298.15 K]
DOCKED: USER    
DOCKED: USER    (1) Final Intermolecular Energy     =   -0.69 kcal/mol
DOCKED: USER        vdW + Hbond + desolv Energy     =   +0.23 kcal/mol
DOCKED: USER        Electrostatic Energy            =   -0.92 kcal/mol
DOCKED: USER    (2) Final Total Internal Energy     =   +0.00 kcal/mol
DOCKED: USER    (3) Torsional Free Energy           =   +0.00 kcal/mol
DOCKED: USER    (4) Unbound System's Energy  [=(2)] =   +0.00 kcal/mol
DOCKED: USER    
DOCKED: USER    
DOCKED: USER    NEWDPF move ../ligands/decavanadate.pdbqt
DOCKED: USER    NEWDPF about 38.166447 -0.097658 117.776763
DOCKED: USER    NEWDPF tran0 -18.693781 -18.300078 -27.699818
DOCKED: USER    NEWDPF quaternion0 0.536576 -0.053316 0.715121 -0.444799
DOCKED: USER    NEWDPF axisangle0 0.599104 -0.059529 0.798455 -127.179035
DOCKED: USER    NEWDPF quat0 0.599104 -0.059529 0.798455 -127.179035
DOCKED: USER  keepresnum = 1 
DOCKED: USER  
DOCKED: USER                              x       y       z     vdW  Elec       q    Type
DOCKED: USER                           _______ _______ _______ _____ _____    ______ ____
DOCKED: ROOT
DOCKED: ATOM      1  O28 DVT A 531     -22.251 -21.708 -27.643 +0.01 +0.03    -0.750 OA
DOCKED: ATOM      2  V10 DVT A 531     -21.414 -20.367 -27.637 +0.03 -0.03    +1.500 Zn
DOCKED: ATOM      3  O18 DVT A 531     -21.473 -19.641 -29.339 +0.05 -0.07    -0.750 OA
DOCKED: ATOM      4  O15 DVT A 531     -22.617 -19.028 -27.245 +0.02 +0.01    -0.750 OA
DOCKED: ATOM      5  V1  DVT A 531     -21.913 -17.339 -27.094 +0.05 -0.01    +1.500 Zn
DOCKED: ATOM      6  O5  DVT A 531     -23.188 -16.383 -26.776 +0.01 +0.02    -0.750 OA
DOCKED: ATOM      7  O27 DVT A 531     -20.889 -20.296 -25.827 +0.00 +0.05    -0.750 OA
DOCKED: ATOM      8  V9  DVT A 531     -19.883 -18.841 -25.334 +0.00 -0.10    +1.500 Zn
DOCKED: ATOM      9  O2  DVT A 531     -19.978 -18.512 -27.542 +0.01 -0.00    -0.750 OA
DOCKED: ATOM     10  O4  DVT A 531     -21.286 -17.713 -25.361 +0.00 +0.05    -0.750 OA
DOCKED: ATOM     11  O8  DVT A 531     -18.643 -17.299 -25.672 +0.00 +0.05    -0.750 OA
DOCKED: ATOM     12  O26 DVT A 531     -19.569 -19.208 -23.803 +0.00 +0.07    -0.750 OA
DOCKED: ATOM     13  O24 DVT A 531     -18.252 -19.803 -26.031 +0.00 +0.05    -0.750 OA
DOCKED: ATOM     14  V7  DVT A 531     -16.945 -18.295 -25.666 +0.00 -0.13    +1.500 Zn
DOCKED: ATOM     15  O11 DVT A 531     -16.030 -16.808 -26.041 +0.00 +0.07    -0.750 OA
DOCKED: ATOM     16  O25 DVT A 531     -16.757 -18.853 -24.174 +0.00 +0.07    -0.750 OA
DOCKED: ATOM     17  O21 DVT A 531     -15.653 -19.347 -26.452 +0.00 +0.07    -0.750 OA
DOCKED: ATOM     18  V6  DVT A 531     -15.436 -19.258 -28.306 +0.01 -0.14    +1.500 Zn
DOCKED: ATOM     19  O19 DVT A 531     -16.128 -19.027 -30.039 +0.02 +0.01    -0.750 OA
DOCKED: ATOM     20  O22 DVT A 531     -14.171 -20.237 -28.408 +0.00 +0.10    -0.750 OA
DOCKED: ATOM     21  O6  DVT A 531     -14.712 -17.559 -28.230 +0.01 +0.07    -0.750 OA
DOCKED: ATOM     22  V8  DVT A 531     -18.409 -19.934 -27.928 +0.02 -0.04    +1.500 Zn
DOCKED: ATOM     23  O20 DVT A 531     -16.954 -20.657 -28.321 +0.01 +0.05    -0.750 OA
DOCKED: ATOM     24  O23 DVT A 531     -19.565 -21.142 -27.907 +0.01 +0.03    -0.750 OA
DOCKED: ATOM     25  O16 DVT A 531     -17.392 -18.103 -27.856 +0.01 +0.02    -0.750 OA
DOCKED: ATOM     26  V5  DVT A 531     -15.959 -16.230 -27.831 +0.02 -0.09    +1.500 Zn
DOCKED: ATOM     27  O14 DVT A 531     -15.126 -14.853 -27.796 +0.01 +0.06    -0.750 OA
DOCKED: ATOM     28  O7  DVT A 531     -17.797 -15.444 -27.474 +0.01 +0.02    -0.750 OA
DOCKED: ATOM     29  V2  DVT A 531     -18.965 -16.670 -27.500 +0.03 +0.01    +1.500 Zn
DOCKED: ATOM     30  O1  DVT A 531     -20.424 -15.910 -27.157 +0.02 +0.01    -0.750 OA
DOCKED: ATOM     31  O17 DVT A 531     -18.832 -19.238 -29.687 +0.03 -0.10    -0.750 OA
DOCKED: ATOM     32  V4  DVT A 531     -17.450 -17.841 -30.052 +0.09 +0.29    +1.500 Zn
DOCKED: ATOM     33  O13 DVT A 531     -16.475 -16.362 -29.653 +0.03 -0.05    -0.750 OA
DOCKED: ATOM     34  O12 DVT A 531     -17.725 -17.530 -31.607 -0.15 -0.70    -0.750 OA
DOCKED: ATOM     35  O9  DVT A 531     -19.032 -16.847 -29.372 +0.03 -0.16    -0.750 OA
DOCKED: ATOM     36  V3  DVT A 531     -20.513 -18.172 -29.660 +0.16 +0.38    +1.500 Zn
DOCKED: ATOM     37  O3  DVT A 531     -21.808 -17.120 -28.946 +0.04 -0.10    -0.750 OA
DOCKED: ATOM     38  O10 DVT A 531     -20.751 -17.827 -31.227 -0.36 -0.79    -0.750 OA
DOCKED: ENDROOT
DOCKED: TORSDOF 0
DOCKED: TER
DOCKED: ENDMDL
________________________________________________________________________________


	BEGINNING GENETIC ALGORITHM DOCKING 12 of 50
Run: 12 Seed: 987512752 971961613 [ Run 12 of 50 GA/GALS ]
Beginning LAMARCKIAN GENETIC ALGORITHM (LGA), with a maximum of 2500000 energy evaluations.

Final-Value: -0.665


	FINAL GENETIC ALGORITHM DOCKED STATE
	_______________________________________________


Detailed state:  trans -18.736 -17.980 -27.658 quatxyzw 0.023233 0.376420 0.493264 0.783874 center 38.166 -0.098 117.777 ntor 0
State:	-18.736 -17.980 -27.658   0.037  0.606  0.794 76.767  

DOCKED: MODEL       12
DOCKED: USER    Run = 12
DOCKED: USER    DPF = atp_pocket.dpf
DOCKED: USER  
DOCKED: USER    Estimated Free Energy of Binding    =   -0.67 kcal/mol  [=(1)+(2)+(3)-(4)]
DOCKED: USER    Estimated Inhibition Constant, Ki   =  325.29 mM (millimolar)  [Temperature = 298.15 K]
DOCKED: USER    
DOCKED: USER    (1) Final Intermolecular Energy     =   -0.67 kcal/mol
DOCKED: USER        vdW + Hbond + desolv Energy     =   +0.24 kcal/mol
DOCKED: USER        Electrostatic Energy            =   -0.91 kcal/mol
DOCKED: USER    (2) Final Total Internal Energy     =   +0.00 kcal/mol
DOCKED: USER    (3) Torsional Free Energy           =   +0.00 kcal/mol
DOCKED: USER    (4) Unbound System's Energy  [=(2)] =   +0.00 kcal/mol
DOCKED: USER    
DOCKED: USER    
DOCKED: USER    NEWDPF move ../ligands/decavanadate.pdbqt
DOCKED: USER    NEWDPF about 38.166447 -0.097658 117.776763
DOCKED: USER    NEWDPF tran0 -18.736216 -17.979552 -27.658106
DOCKED: USER    NEWDPF quaternion0 0.023233 0.376420 0.493264 0.783874
DOCKED: USER    NEWDPF axisangle0 0.037417 0.606230 0.794409 76.766724
DOCKED: USER    NEWDPF quat0 0.037417 0.606230 0.794409 76.766724
DOCKED: USER  keepresnum = 1 
DOCKED: USER  
DOCKED: USER                              x       y       z     vdW  Elec       q    Type
DOCKED: USER                           _______ _______ _______ _____ _____    ______ ____
DOCKED: ROOT
DOCKED: ATOM      1  O28 DVT A 531     -15.205 -14.545 -27.726 +0.01 +0.06    -0.750 OA
DOCKED: ATOM      2  V10 DVT A 531     -16.045 -15.880 -27.822 +0.02 -0.08    +1.500 Zn
DOCKED: ATOM      3  O18 DVT A 531     -16.462 -16.175 -29.601 +0.03 -0.05    -0.750 OA
DOCKED: ATOM      4  O15 DVT A 531     -14.816 -17.225 -28.100 +0.01 +0.07    -0.750 OA
DOCKED: ATOM      5  V1  DVT A 531     -15.498 -18.928 -28.180 +0.01 -0.13    +1.500 Zn
DOCKED: ATOM      6  O5  DVT A 531     -14.211 -19.881 -28.453 +0.00 +0.10    -0.750 OA
DOCKED: ATOM      7  O27 DVT A 531     -16.069 -16.405 -26.010 +0.00 +0.07    -0.750 OA
DOCKED: ATOM      8  V9  DVT A 531     -16.945 -17.975 -25.635 +0.00 -0.13    +1.500 Zn
DOCKED: ATOM      9  O2  DVT A 531     -17.452 -17.760 -27.800 +0.01 +0.01    -0.750 OA
DOCKED: ATOM     10  O4  DVT A 531     -15.630 -19.006 -26.306 +0.00 +0.07    -0.750 OA
DOCKED: ATOM     11  O8  DVT A 531     -18.270 -19.439 -25.994 +0.00 +0.05    -0.750 OA
DOCKED: ATOM     12  O26 DVT A 531     -16.829 -17.998 -24.034 +0.00 +0.07    -0.750 OA
DOCKED: ATOM     13  O24 DVT A 531     -18.676 -16.940 -25.620 +0.00 +0.05    -0.750 OA
DOCKED: ATOM     14  V7  DVT A 531     -19.878 -18.543 -25.297 +0.00 -0.10    +1.500 Zn
DOCKED: ATOM     15  O11 DVT A 531     -20.898 -19.931 -25.763 +0.00 +0.05    -0.750 OA
DOCKED: ATOM     16  O25 DVT A 531     -19.645 -18.366 -23.719 +0.00 +0.07    -0.750 OA
DOCKED: ATOM     17  O21 DVT A 531     -21.304 -17.386 -25.433 +0.00 +0.04    -0.750 OA
DOCKED: ATOM     18  V6  DVT A 531     -22.011 -17.035 -27.127 +0.05 -0.01    +1.500 Zn
DOCKED: ATOM     19  O19 DVT A 531     -21.814 -16.816 -28.985 +0.04 -0.10    -0.750 OA
DOCKED: ATOM     20  O22 DVT A 531     -23.231 -16.112 -26.650 +0.01 +0.03    -0.750 OA
DOCKED: ATOM     21  O6  DVT A 531     -22.733 -18.731 -27.275 +0.02 +0.01    -0.750 OA
DOCKED: ATOM     22  V8  DVT A 531     -19.029 -16.351 -27.401 +0.03 -0.00    +1.500 Zn
DOCKED: ATOM     23  O20 DVT A 531     -20.516 -15.614 -27.207 +0.02 +0.01    -0.750 OA
DOCKED: ATOM     24  O23 DVT A 531     -17.877 -15.138 -27.396 +0.01 +0.02    -0.750 OA
DOCKED: ATOM     25  O16 DVT A 531     -20.037 -18.185 -27.506 +0.02 -0.01    -0.750 OA
DOCKED: ATOM     26  V5  DVT A 531     -21.460 -20.066 -27.555 +0.03 -0.03    +1.500 Zn
DOCKED: ATOM     27  O14 DVT A 531     -22.289 -21.443 -27.634 +0.01 +0.03    -0.750 OA
DOCKED: ATOM     28  O7  DVT A 531     -19.615 -20.841 -27.899 +0.01 +0.02    -0.750 OA
DOCKED: ATOM     29  V2  DVT A 531     -18.464 -19.598 -27.937 +0.02 -0.03    +1.500 Zn
DOCKED: ATOM     30  O1  DVT A 531     -16.987 -20.359 -28.188 +0.01 +0.05    -0.750 OA
DOCKED: ATOM     31  O17 DVT A 531     -19.109 -16.587 -29.323 +0.03 -0.15    -0.750 OA
DOCKED: ATOM     32  V4  DVT A 531     -20.575 -17.910 -29.634 +0.17 +0.40    +1.500 Zn
DOCKED: ATOM     33  O13 DVT A 531     -21.446 -19.480 -29.360 +0.05 -0.08    -0.750 OA
DOCKED: ATOM     34  O12 DVT A 531     -20.734 -17.829 -31.234 -0.35 -0.79    -0.750 OA
DOCKED: ATOM     35  O9  DVT A 531     -18.896 -18.975 -29.660 +0.03 -0.12    -0.750 OA
DOCKED: ATOM     36  V3  DVT A 531     -17.511 -17.561 -30.001 +0.09 +0.31    +1.500 Zn
DOCKED: ATOM     37  O3  DVT A 531     -16.100 -18.700 -29.933 +0.02 +0.00    -0.750 OA
DOCKED: ATOM     38  O10 DVT A 531     -17.709 -17.511 -31.611 -0.16 -0.70    -0.750 OA
DOCKED: ENDROOT
DOCKED: TORSDOF 0
DOCKED: TER
DOCKED: ENDMDL
________________________________________________________________________________


	BEGINNING GENETIC ALGORITHM DOCKING 13 of 50
Run: 13 Seed: 1304140772 1730382702 [ Run 13 of 50 GA/GALS ]
Beginning LAMARCKIAN GENETIC ALGORITHM (LGA), with a maximum of 2500000 energy evaluations.

Final-Value: -0.694


	FINAL GENETIC ALGORITHM DOCKED STATE
	_______________________________________________


Detailed state:  trans -18.735 -18.001 -27.654 quatxyzw -0.512773 0.026238 -0.720607 0.465940 center 38.166 -0.098 117.777 ntor 0
State:	-18.735 -18.001 -27.654  -0.580  0.030 -0.814 124.458  

DOCKED: MODEL       13
DOCKED: USER    Run = 13
DOCKED: USER    DPF = atp_pocket.dpf
DOCKED: USER  
DOCKED: USER    Estimated Free Energy of Binding    =   -0.69 kcal/mol  [=(1)+(2)+(3)-(4)]
DOCKED: USER    Estimated Inhibition Constant, Ki   =  310.16 mM (millimolar)  [Temperature = 298.15 K]
DOCKED: USER    
DOCKED: USER    (1) Final Intermolecular Energy     =   -0.69 kcal/mol
DOCKED: USER        vdW + Hbond + desolv Energy     =   +0.23 kcal/mol
DOCKED: USER        Electrostatic Energy            =   -0.93 kcal/mol
DOCKED: USER    (2) Final Total Internal Energy     =   +0.00 kcal/mol
DOCKED: USER    (3) Torsional Free Energy           =   +0.00 kcal/mol
DOCKED: USER    (4) Unbound System's Energy  [=(2)] =   +0.00 kcal/mol
DOCKED: USER    
DOCKED: USER    
DOCKED: USER    NEWDPF move ../ligands/decavanadate.pdbqt
DOCKED: USER    NEWDPF about 38.166447 -0.097658 117.776763
DOCKED: USER    NEWDPF tran0 -18.735194 -18.001053 -27.653677
DOCKED: USER    NEWDPF quaternion0 -0.512773 0.026238 -0.720607 0.465940
DOCKED: USER    NEWDPF axisangle0 -0.579525 0.029653 -0.814415 124.457804
DOCKED: USER    NEWDPF quat0 -0.579525 0.029653 -0.814415 124.457804
DOCKED: USER  keepresnum = 1 
DOCKED: USER  
DOCKED: USER                              x       y       z     vdW  Elec       q    Type
DOCKED: USER                           _______ _______ _______ _____ _____    ______ ____
DOCKED: ROOT
DOCKED: ATOM      1  O28 DVT A 531     -22.291 -21.399 -27.362 +0.01 +0.03    -0.750 OA
DOCKED: ATOM      2  V10 DVT A 531     -21.455 -20.061 -27.456 +0.03 -0.03    +1.500 Zn
DOCKED: ATOM      3  O18 DVT A 531     -21.491 -19.478 -29.213 +0.05 -0.07    -0.750 OA
DOCKED: ATOM      4  O15 DVT A 531     -22.664 -18.696 -27.193 +0.02 +0.01    -0.750 OA
DOCKED: ATOM      5  V1  DVT A 531     -21.963 -16.998 -27.174 +0.05 -0.01    +1.500 Zn
DOCKED: ATOM      6  O5  DVT A 531     -23.243 -16.021 -26.954 +0.02 +0.02    -0.750 OA
DOCKED: ATOM      7  O27 DVT A 531     -20.954 -19.838 -25.651 +0.00 +0.05    -0.750 OA
DOCKED: ATOM      8  V9  DVT A 531     -19.956 -18.345 -25.268 +0.00 -0.10    +1.500 Zn
DOCKED: ATOM      9  O2  DVT A 531     -20.021 -18.202 -27.496 +0.01 -0.00    -0.750 OA
DOCKED: ATOM     10  O4  DVT A 531     -21.359 -17.226 -25.407 +0.00 +0.05    -0.750 OA
DOCKED: ATOM     11  O8  DVT A 531     -18.712 -16.835 -25.716 +0.00 +0.05    -0.750 OA
DOCKED: ATOM     12  O26 DVT A 531     -19.662 -18.583 -23.707 +0.00 +0.07    -0.750 OA
DOCKED: ATOM     13  O24 DVT A 531     -18.315 -19.359 -25.860 +0.00 +0.05    -0.750 OA
DOCKED: ATOM     14  V7  DVT A 531     -17.014 -17.824 -25.604 +0.00 -0.13    +1.500 Zn
DOCKED: ATOM     15  O11 DVT A 531     -16.095 -16.372 -26.089 +0.00 +0.07    -0.750 OA
DOCKED: ATOM     16  O25 DVT A 531     -16.847 -18.256 -24.068 +0.00 +0.07    -0.750 OA
DOCKED: ATOM     17  O21 DVT A 531     -15.711 -18.935 -26.282 +0.00 +0.07    -0.750 OA
DOCKED: ATOM     18  V6  DVT A 531     -15.469 -19.001 -28.134 +0.01 -0.13    +1.500 Zn
DOCKED: ATOM     19  O19 DVT A 531     -16.137 -18.916 -29.890 +0.02 +0.01    -0.750 OA
DOCKED: ATOM     20  O22 DVT A 531     -14.202 -19.983 -28.137 +0.00 +0.10    -0.750 OA
DOCKED: ATOM     21  O6  DVT A 531     -14.747 -17.300 -28.190 +0.01 +0.07    -0.750 OA
DOCKED: ATOM     22  V8  DVT A 531     -18.446 -19.648 -27.742 +0.02 -0.04    +1.500 Zn
DOCKED: ATOM     23  O20 DVT A 531     -16.986 -20.399 -28.053 +0.01 +0.05    -0.750 OA
DOCKED: ATOM     24  O23 DVT A 531     -19.602 -20.852 -27.636 +0.01 +0.03    -0.750 OA
DOCKED: ATOM     25  O16 DVT A 531     -17.431 -17.816 -27.808 +0.01 +0.01    -0.750 OA
DOCKED: ATOM     26  V5  DVT A 531     -16.000 -15.944 -27.920 +0.02 -0.08    +1.500 Zn
DOCKED: ATOM     27  O14 DVT A 531     -15.169 -14.568 -27.988 +0.01 +0.06    -0.750 OA
DOCKED: ATOM     28  O7  DVT A 531     -17.843 -15.134 -27.654 +0.02 +0.01    -0.750 OA
DOCKED: ATOM     29  V2  DVT A 531     -19.010 -16.361 -27.593 +0.04 +0.02    +1.500 Zn
DOCKED: ATOM     30  O1  DVT A 531     -20.474 -15.577 -27.335 +0.02 +0.00    -0.750 OA
DOCKED: ATOM     31  O17 DVT A 531     -18.846 -19.101 -29.558 +0.03 -0.10    -0.750 OA
DOCKED: ATOM     32  V4  DVT A 531     -17.460 -17.737 -30.019 +0.09 +0.29    +1.500 Zn
DOCKED: ATOM     33  O13 DVT A 531     -16.492 -16.228 -29.730 +0.03 -0.06    -0.750 OA
DOCKED: ATOM     34  O12 DVT A 531     -17.713 -17.556 -31.598 -0.16 -0.68    -0.750 OA
DOCKED: ATOM     35  O9  DVT A 531     -19.051 -16.692 -29.445 +0.03 -0.17    -0.750 OA
DOCKED: ATOM     36  V3  DVT A 531     -20.527 -18.040 -29.642 +0.16 +0.39    +1.500 Zn
DOCKED: ATOM     37  O3  DVT A 531     -21.833 -16.934 -29.035 +0.04 -0.11    -0.750 OA
DOCKED: ATOM     38  O10 DVT A 531     -20.745 -17.826 -31.236 -0.36 -0.79    -0.750 OA
DOCKED: ENDROOT
DOCKED: TORSDOF 0
DOCKED: TER
DOCKED: ENDMDL
________________________________________________________________________________


	BEGINNING GENETIC ALGORITHM DOCKING 14 of 50
Run: 14 Seed: 1423380722 357145669 [ Run 14 of 50 GA/GALS ]
Beginning LAMARCKIAN GENETIC ALGORITHM (LGA), with a maximum of 2500000 energy evaluations.

Final-Value: -0.702


	FINAL GENETIC ALGORITHM DOCKED STATE
	_______________________________________________


Detailed state:  trans -18.694 -18.070 -27.677 quatxyzw -0.523970 0.029888 -0.724921 0.446152 center 38.166 -0.098 117.777 ntor 0
State:	-18.694 -18.070 -27.677  -0.585  0.033 -0.810 127.006  

DOCKED: MODEL       14
DOCKED: USER    Run = 14
DOCKED: USER    DPF = atp_pocket.dpf
DOCKED: USER  
DOCKED: USER    Estimated Free Energy of Binding    =   -0.70 kcal/mol  [=(1)+(2)+(3)-(4)]
DOCKED: USER    Estimated Inhibition Constant, Ki   =  305.63 mM (millimolar)  [Temperature = 298.15 K]
DOCKED: USER    
DOCKED: USER    (1) Final Intermolecular Energy     =   -0.70 kcal/mol
DOCKED: USER        vdW + Hbond + desolv Energy     =   +0.25 kcal/mol
DOCKED: USER        Electrostatic Energy            =   -0.95 kcal/mol
DOCKED: USER    (2) Final Total Internal Energy     =   +0.00 kcal/mol
DOCKED: USER    (3) Torsional Free Energy           =   +0.00 kcal/mol
DOCKED: USER    (4) Unbound System's Energy  [=(2)] =   +0.00 kcal/mol
DOCKED: USER    
DOCKED: USER    
DOCKED: USER    NEWDPF move ../ligands/decavanadate.pdbqt
DOCKED: USER    NEWDPF about 38.166447 -0.097658 117.776763
DOCKED: USER    NEWDPF tran0 -18.693667 -18.070430 -27.676853
DOCKED: USER    NEWDPF quaternion0 -0.523970 0.029888 -0.724921 0.446152
DOCKED: USER    NEWDPF axisangle0 -0.585469 0.033396 -0.810007 127.005865
DOCKED: USER    NEWDPF quat0 -0.585469 0.033396 -0.810007 127.005865
DOCKED: USER  keepresnum = 1 
DOCKED: USER  
DOCKED: USER                              x       y       z     vdW  Elec       q    Type
DOCKED: USER                           _______ _______ _______ _____ _____    ______ ____
DOCKED: ROOT
DOCKED: ATOM      1  O28 DVT A 531     -22.146 -21.580 -27.483 +0.01 +0.03    -0.750 OA
DOCKED: ATOM      2  V10 DVT A 531     -21.350 -20.215 -27.535 +0.03 -0.03    +1.500 Zn
DOCKED: ATOM      3  O18 DVT A 531     -21.417 -19.572 -29.269 +0.05 -0.07    -0.750 OA
DOCKED: ATOM      4  O15 DVT A 531     -22.597 -18.897 -27.215 +0.02 +0.01    -0.750 OA
DOCKED: ATOM      5  V1  DVT A 531     -21.946 -17.181 -27.140 +0.05 -0.01    +1.500 Zn
DOCKED: ATOM      6  O5  DVT A 531     -23.251 -16.251 -26.876 +0.02 +0.02    -0.750 OA
DOCKED: ATOM      7  O27 DVT A 531     -20.842 -20.042 -25.726 +0.00 +0.05    -0.750 OA
DOCKED: ATOM      8  V9  DVT A 531     -19.885 -18.535 -25.297 +0.00 -0.10    +1.500 Zn
DOCKED: ATOM      9  O2  DVT A 531     -19.972 -18.314 -27.518 +0.01 -0.00    -0.750 OA
DOCKED: ATOM     10  O4  DVT A 531     -21.322 -17.454 -25.386 +0.00 +0.05    -0.750 OA
DOCKED: ATOM     11  O8  DVT A 531     -18.690 -16.974 -25.698 +0.00 +0.05    -0.750 OA
DOCKED: ATOM     12  O26 DVT A 531     -19.573 -18.820 -23.748 +0.00 +0.07    -0.750 OA
DOCKED: ATOM     13  O24 DVT A 531     -18.220 -19.478 -25.936 +0.00 +0.05    -0.750 OA
DOCKED: ATOM     14  V7  DVT A 531     -16.963 -17.915 -25.634 +0.00 -0.13    +1.500 Zn
DOCKED: ATOM     15  O11 DVT A 531     -16.091 -16.421 -26.072 +0.00 +0.07    -0.750 OA
DOCKED: ATOM     16  O25 DVT A 531     -16.770 -18.397 -24.116 +0.00 +0.07    -0.750 OA
DOCKED: ATOM     17  O21 DVT A 531     -15.633 -18.963 -26.360 +0.00 +0.07    -0.750 OA
DOCKED: ATOM     18  V6  DVT A 531     -15.404 -18.955 -28.215 +0.01 -0.13    +1.500 Zn
DOCKED: ATOM     19  O19 DVT A 531     -16.087 -18.828 -29.962 +0.02 +0.01    -0.750 OA
DOCKED: ATOM     20  O22 DVT A 531     -14.109 -19.899 -28.262 +0.00 +0.10    -0.750 OA
DOCKED: ATOM     21  O6  DVT A 531     -14.732 -17.233 -28.214 +0.01 +0.07    -0.750 OA
DOCKED: ATOM     22  V8  DVT A 531     -18.357 -19.704 -27.826 +0.02 -0.04    +1.500 Zn
DOCKED: ATOM     23  O20 DVT A 531     -16.878 -20.400 -28.174 +0.01 +0.05    -0.750 OA
DOCKED: ATOM     24  O23 DVT A 531     -19.477 -20.945 -27.755 +0.01 +0.03    -0.750 OA
DOCKED: ATOM     25  O16 DVT A 531     -17.397 -17.841 -27.833 +0.01 +0.02    -0.750 OA
DOCKED: ATOM     26  V5  DVT A 531     -16.022 -15.926 -27.887 +0.02 -0.08    +1.500 Zn
DOCKED: ATOM     27  O14 DVT A 531     -15.232 -14.524 -27.912 +0.01 +0.06    -0.750 OA
DOCKED: ATOM     28  O7  DVT A 531     -17.886 -15.180 -27.580 +0.01 +0.01    -0.750 OA
DOCKED: ATOM     29  V2  DVT A 531     -19.016 -16.442 -27.556 +0.03 +0.01    +1.500 Zn
DOCKED: ATOM     30  O1  DVT A 531     -20.500 -15.712 -27.259 +0.02 +0.00    -0.750 OA
DOCKED: ATOM     31  O17 DVT A 531     -18.787 -19.105 -29.618 +0.03 -0.10    -0.750 OA
DOCKED: ATOM     32  V4  DVT A 531     -17.445 -17.685 -30.039 +0.10 +0.30    +1.500 Zn
DOCKED: ATOM     33  O13 DVT A 531     -16.519 -16.159 -29.704 +0.03 -0.06    -0.750 OA
DOCKED: ATOM     34  O12 DVT A 531     -17.716 -17.455 -31.609 -0.14 -0.71    -0.750 OA
DOCKED: ATOM     35  O9  DVT A 531     -19.062 -16.708 -29.418 +0.03 -0.17    -0.750 OA
DOCKED: ATOM     36  V3  DVT A 531     -20.499 -18.091 -29.653 +0.16 +0.39    +1.500 Zn
DOCKED: ATOM     37  O3  DVT A 531     -21.832 -17.047 -28.998 +0.04 -0.11    -0.750 OA
DOCKED: ATOM     38  O10 DVT A 531     -20.736 -17.827 -31.236 -0.35 -0.80    -0.750 OA
DOCKED: ENDROOT
DOCKED: TORSDOF 0
DOCKED: TER
DOCKED: ENDMDL
________________________________________________________________________________


	BEGINNING GENETIC ALGORITHM DOCKING 15 of 50
Run: 15 Seed: 1977573193 840267675 [ Run 15 of 50 GA/GALS ]
Beginning LAMARCKIAN GENETIC ALGORITHM (LGA), with a maximum of 2500000 energy evaluations.

Final-Value: -0.785


	FINAL GENETIC ALGORITHM DOCKED STATE
	_______________________________________________


Detailed state:  trans -17.944 -13.502 -28.714 quatxyzw 0.556529 -0.083302 0.192122 0.804006 center 38.166 -0.098 117.777 ntor 0
State:	-17.944 -13.502 -28.714   0.936 -0.140  0.323 72.971  

DOCKED: MODEL       15
DOCKED: USER    Run = 15
DOCKED: USER    DPF = atp_pocket.dpf
DOCKED: USER  
DOCKED: USER    Estimated Free Energy of Binding    =   -0.79 kcal/mol  [=(1)+(2)+(3)-(4)]
DOCKED: USER    Estimated Inhibition Constant, Ki   =  265.73 mM (millimolar)  [Temperature = 298.15 K]
DOCKED: USER    
DOCKED: USER    (1) Final Intermolecular Energy     =   -0.79 kcal/mol
DOCKED: USER        vdW + Hbond + desolv Energy     =   +0.50 kcal/mol
DOCKED: USER        Electrostatic Energy            =   -1.28 kcal/mol
DOCKED: USER    (2) Final Total Internal Energy     =   +0.00 kcal/mol
DOCKED: USER    (3) Torsional Free Energy           =   +0.00 kcal/mol
DOCKED: USER    (4) Unbound System's Energy  [=(2)] =   +0.00 kcal/mol
DOCKED: USER    
DOCKED: USER    
DOCKED: USER    NEWDPF move ../ligands/decavanadate.pdbqt
DOCKED: USER    NEWDPF about 38.166447 -0.097658 117.776763
DOCKED: USER    NEWDPF tran0 -17.944397 -13.501976 -28.713940
DOCKED: USER    NEWDPF quaternion0 0.556529 -0.083302 0.192122 0.804006
DOCKED: USER    NEWDPF axisangle0 0.935938 -0.140093 0.323100 72.971288
DOCKED: USER    NEWDPF quat0 0.935938 -0.140093 0.323100 72.971288
DOCKED: USER  keepresnum = 1 
DOCKED: USER  
DOCKED: USER                              x       y       z     vdW  Elec       q    Type
DOCKED: USER                           _______ _______ _______ _____ _____    ______ ____
DOCKED: ROOT
DOCKED: ATOM      1  O28 DVT A 531     -18.857 -11.941 -33.297 -0.41 -0.70    -0.750 OA
DOCKED: ATOM      2  V10 DVT A 531     -18.512 -12.787 -32.007 +0.27 +0.68    +1.500 Zn
DOCKED: ATOM      3  O18 DVT A 531     -20.027 -13.728 -31.511 +0.04 -0.30    -0.750 OA
DOCKED: ATOM      4  O15 DVT A 531     -17.943 -14.428 -32.622 +0.02 -0.65    -0.750 OA
DOCKED: ATOM      5  V1  DVT A 531     -17.395 -15.619 -31.336 +0.17 +0.77    +1.500 Zn
DOCKED: ATOM      6  O5  DVT A 531     -16.983 -16.959 -32.157 -0.45 -0.66    -0.750 OA
DOCKED: ATOM      7  O27 DVT A 531     -16.692 -12.347 -31.780 +0.04 -0.22    -0.750 OA
DOCKED: ATOM      8  V9  DVT A 531     -15.836 -13.147 -30.367 +0.10 +0.06    +1.500 Zn
DOCKED: ATOM      9  O2  DVT A 531     -17.930 -13.827 -29.984 +0.04 -0.10    -0.750 OA
DOCKED: ATOM     10  O4  DVT A 531     -15.735 -14.749 -31.183 +0.05 -0.09    -0.750 OA
DOCKED: ATOM     11  O8  DVT A 531     -15.756 -14.057 -28.580 +0.02 +0.04    -0.750 OA
DOCKED: ATOM     12  O26 DVT A 531     -14.395 -12.447 -30.463 +0.03 +0.05    -0.750 OA
DOCKED: ATOM     13  O24 DVT A 531     -16.593 -11.712 -29.168 +0.02 +0.03    -0.750 OA
DOCKED: ATOM     14  V7  DVT A 531     -15.829 -12.453 -27.442 +0.00 -0.14    +1.500 Zn
DOCKED: ATOM     15  O11 DVT A 531     -15.820 -13.456 -25.965 +0.00 +0.08    -0.750 OA
DOCKED: ATOM     16  O25 DVT A 531     -14.474 -11.641 -27.723 +0.00 +0.09    -0.750 OA
DOCKED: ATOM     17  O21 DVT A 531     -16.716 -11.093 -26.572 +0.00 +0.08    -0.750 OA
DOCKED: ATOM     18  V6  DVT A 531     -18.491 -11.372 -26.056 +0.00 -0.15    +1.500 Zn
DOCKED: ATOM     19  O19 DVT A 531     -20.186 -12.141 -26.324 +0.00 +0.06    -0.750 OA
DOCKED: ATOM     20  O22 DVT A 531     -18.698  -9.982 -25.286 +0.00 +0.09    -0.750 OA
DOCKED: ATOM     21  O6  DVT A 531     -18.012 -12.575 -24.736 +0.00 +0.08    -0.750 OA
DOCKED: ATOM     22  V8  DVT A 531     -18.483 -11.957 -29.071 +0.05 -0.01    +1.500 Zn
DOCKED: ATOM     23  O20 DVT A 531     -18.907 -10.762 -27.984 +0.00 +0.06    -0.750 OA
DOCKED: ATOM     24  O23 DVT A 531     -18.798 -11.360 -30.602 +0.05 -0.05    -0.750 OA
DOCKED: ATOM     25  O16 DVT A 531     -17.959 -13.155 -27.434 +0.01 +0.04    -0.750 OA
DOCKED: ATOM     26  V5  DVT A 531     -17.442 -14.224 -25.396 +0.00 -0.13    +1.500 Zn
DOCKED: ATOM     27  O14 DVT A 531     -17.062 -15.099 -24.101 +0.00 +0.07    -0.750 OA
DOCKED: ATOM     28  O7  DVT A 531     -17.068 -15.643 -26.800 +0.00 +0.04    -0.750 OA
DOCKED: ATOM     29  V2  DVT A 531     -17.433 -15.041 -28.341 +0.04 +0.01    +1.500 Zn
DOCKED: ATOM     30  O1  DVT A 531     -17.051 -16.280 -29.410 +0.03 -0.07    -0.750 OA
DOCKED: ATOM     31  O17 DVT A 531     -20.087 -13.033 -28.908 +0.03 -0.02    -0.750 OA
DOCKED: ATOM     32  V4  DVT A 531     -20.052 -13.758 -27.046 +0.02 -0.06    +1.500 Zn
DOCKED: ATOM     33  O13 DVT A 531     -19.285 -14.609 -25.637 +0.00 +0.05    -0.750 OA
DOCKED: ATOM     34  O12 DVT A 531     -21.525 -14.396 -26.932 +0.01 +0.03    -0.750 OA
DOCKED: ATOM     35  O9  DVT A 531     -19.301 -15.205 -28.185 +0.03 -0.03    -0.750 OA
DOCKED: ATOM     36  V3  DVT A 531     -19.966 -14.688 -30.008 +0.16 +0.36    +1.500 Zn
DOCKED: ATOM     37  O3  DVT A 531     -19.149 -16.060 -30.870 +0.07 -0.49    -0.750 OA
DOCKED: ATOM     38  O10 DVT A 531     -21.441 -15.343 -29.846 +0.04 -0.18    -0.750 OA
DOCKED: ENDROOT
DOCKED: TORSDOF 0
DOCKED: TER
DOCKED: ENDMDL
________________________________________________________________________________


	BEGINNING GENETIC ALGORITHM DOCKING 16 of 50
Run: 16 Seed: 1967806816 2010841890 [ Run 16 of 50 GA/GALS ]
Beginning LAMARCKIAN GENETIC ALGORITHM (LGA), with a maximum of 2500000 energy evaluations.

Final-Value: -0.772


	FINAL GENETIC ALGORITHM DOCKED STATE
	_______________________________________________


Detailed state:  trans -17.407 -16.022 -29.500 quatxyzw -0.140763 -0.764620 0.532556 -0.334554 center 38.166 -0.098 117.777 ntor 0
State:	-17.407 -16.022 -29.500  -0.149 -0.811  0.565 -140.909  

DOCKED: MODEL       16
DOCKED: USER    Run = 16
DOCKED: USER    DPF = atp_pocket.dpf
DOCKED: USER  
DOCKED: USER    Estimated Free Energy of Binding    =   -0.77 kcal/mol  [=(1)+(2)+(3)-(4)]
DOCKED: USER    Estimated Inhibition Constant, Ki   =  271.63 mM (millimolar)  [Temperature = 298.15 K]
DOCKED: USER    
DOCKED: USER    (1) Final Intermolecular Energy     =   -0.77 kcal/mol
DOCKED: USER        vdW + Hbond + desolv Energy     =   +0.84 kcal/mol
DOCKED: USER        Electrostatic Energy            =   -1.61 kcal/mol
DOCKED: USER    (2) Final Total Internal Energy     =   +0.00 kcal/mol
DOCKED: USER    (3) Torsional Free Energy           =   +0.00 kcal/mol
DOCKED: USER    (4) Unbound System's Energy  [=(2)] =   +0.00 kcal/mol
DOCKED: USER    
DOCKED: USER    
DOCKED: USER    NEWDPF move ../ligands/decavanadate.pdbqt
DOCKED: USER    NEWDPF about 38.166447 -0.097658 117.776763
DOCKED: USER    NEWDPF tran0 -17.407173 -16.022202 -29.499890
DOCKED: USER    NEWDPF quaternion0 -0.140763 -0.764620 0.532556 -0.334554
DOCKED: USER    NEWDPF axisangle0 -0.149370 -0.811374 0.565120 -140.909155
DOCKED: USER    NEWDPF quat0 -0.149370 -0.811374 0.565120 -140.909155
DOCKED: USER  keepresnum = 1 
DOCKED: USER  
DOCKED: USER                              x       y       z     vdW  Elec       q    Type
DOCKED: USER                           _______ _______ _______ _____ _____    ______ ____
DOCKED: ROOT
DOCKED: ATOM      1  O28 DVT A 531     -16.271 -14.816 -34.140 -0.57 -0.93    -0.750 OA
DOCKED: ATOM      2  V10 DVT A 531     -16.543 -14.828 -32.583 +0.28 +0.91    +1.500 Zn
DOCKED: ATOM      3  O18 DVT A 531     -14.916 -14.968 -31.712 +0.06 -0.01    -0.750 OA
DOCKED: ATOM      4  O15 DVT A 531     -16.446 -13.068 -32.045 +0.04 -0.28    -0.750 OA
DOCKED: ATOM      5  V1  DVT A 531     -16.798 -12.753 -30.271 +0.10 +0.11    +1.500 Zn
DOCKED: ATOM      6  O5  DVT A 531     -16.616 -11.148 -30.088 +0.03 +0.01    -0.750 OA
DOCKED: ATOM      7  O27 DVT A 531     -18.420 -14.633 -32.558 +0.20 -0.69    -0.750 OA
DOCKED: ATOM      8  V9  DVT A 531     -19.204 -14.568 -30.899 +0.20 +0.60    +1.500 Zn
DOCKED: ATOM      9  O2  DVT A 531     -17.101 -15.040 -30.312 +0.04 -0.14    -0.750 OA
DOCKED: ATOM     10  O4  DVT A 531     -18.650 -12.886 -30.573 +0.05 -0.13    -0.750 OA
DOCKED: ATOM     11  O8  DVT A 531     -19.294 -14.916 -28.925 +0.03 -0.08    -0.750 OA
DOCKED: ATOM     12  O26 DVT A 531     -20.754 -14.510 -31.311 +0.03 -0.35    -0.750 OA
DOCKED: ATOM     13  O24 DVT A 531     -19.160 -16.584 -30.861 +0.11 -0.55    -0.750 OA
DOCKED: ATOM     14  V7  DVT A 531     -19.931 -16.777 -28.994 +0.11 +0.25    +1.500 Zn
DOCKED: ATOM     15  O11 DVT A 531     -19.872 -16.901 -27.214 +0.01 +0.00    -0.750 OA
DOCKED: ATOM     16  O25 DVT A 531     -21.405 -16.724 -29.626 +0.03 -0.19    -0.750 OA
DOCKED: ATOM     17  O21 DVT A 531     -19.685 -18.593 -29.178 +0.03 -0.11    -0.750 OA
DOCKED: ATOM     18  V6  DVT A 531     -18.029 -19.321 -28.708 +0.04 +0.02    +1.500 Zn
DOCKED: ATOM     19  O19 DVT A 531     -16.158 -19.207 -28.560 +0.01 +0.05    -0.750 OA
DOCKED: ATOM     20  O22 DVT A 531     -18.410 -20.859 -28.950 +0.02 +0.02    -0.750 OA
DOCKED: ATOM     21  O6  DVT A 531     -18.318 -19.042 -26.904 +0.01 +0.04    -0.750 OA
DOCKED: ATOM     22  V8  DVT A 531     -17.335 -17.134 -30.750 +0.13 +0.57    +1.500 Zn
DOCKED: ATOM     23  O20 DVT A 531     -17.506 -18.792 -30.634 +0.01 -0.15    -0.750 OA
DOCKED: ATOM     24  O23 DVT A 531     -16.971 -16.790 -32.346 -0.43 -0.74    -0.750 OA
DOCKED: ATOM     25  O16 DVT A 531     -17.722 -17.027 -28.693 +0.02 -0.04    -0.750 OA
DOCKED: ATOM     26  V5  DVT A 531     -18.212 -17.250 -26.397 +0.01 -0.08    +1.500 Zn
DOCKED: ATOM     27  O14 DVT A 531     -18.509 -17.230 -24.816 +0.00 +0.06    -0.750 OA
DOCKED: ATOM     28  O7  DVT A 531     -17.870 -15.262 -26.632 +0.00 +0.04    -0.750 OA
DOCKED: ATOM     29  V2  DVT A 531     -17.458 -14.933 -28.242 +0.04 +0.00    +1.500 Zn
DOCKED: ATOM     30  O1  DVT A 531     -17.237 -13.269 -28.320 +0.02 +0.02    -0.750 OA
DOCKED: ATOM     31  O17 DVT A 531     -15.525 -17.014 -30.068 +0.03 +0.00    -0.750 OA
DOCKED: ATOM     32  V4  DVT A 531     -15.645 -17.557 -28.148 +0.02 -0.10    +1.500 Zn
DOCKED: ATOM     33  O13 DVT A 531     -16.330 -17.484 -26.468 +0.00 +0.06    -0.750 OA
DOCKED: ATOM     34  O12 DVT A 531     -14.087 -17.682 -27.762 +0.00 +0.09    -0.750 OA
DOCKED: ATOM     35  O9  DVT A 531     -15.690 -15.569 -28.133 +0.01 +0.04    -0.750 OA
DOCKED: ATOM     36  V3  DVT A 531     -14.924 -15.122 -29.935 +0.07 -0.07    +1.500 Zn
DOCKED: ATOM     37  O3  DVT A 531     -15.102 -13.326 -29.741 +0.03 +0.03    -0.750 OA
DOCKED: ATOM     38  O10 DVT A 531     -13.367 -15.263 -29.500 +0.02 +0.11    -0.750 OA
DOCKED: ENDROOT
DOCKED: TORSDOF 0
DOCKED: TER
DOCKED: ENDMDL
________________________________________________________________________________


	BEGINNING GENETIC ALGORITHM DOCKING 17 of 50
Run: 17 Seed: 985650173 331719894 [ Run 17 of 50 GA/GALS ]
Beginning LAMARCKIAN GENETIC ALGORITHM (LGA), with a maximum of 2500000 energy evaluations.

Final-Value: -0.673


	FINAL GENETIC ALGORITHM DOCKED STATE
	_______________________________________________


Detailed state:  trans -18.729 -18.213 -27.691 quatxyzw -0.001216 0.357422 0.505702 0.785184 center 38.166 -0.098 117.777 ntor 0
State:	-18.729 -18.213 -27.691  -0.002  0.577  0.817 76.525  

DOCKED: MODEL       17
DOCKED: USER    Run = 17
DOCKED: USER    DPF = atp_pocket.dpf
DOCKED: USER  
DOCKED: USER    Estimated Free Energy of Binding    =   -0.67 kcal/mol  [=(1)+(2)+(3)-(4)]
DOCKED: USER    Estimated Inhibition Constant, Ki   =  321.11 mM (millimolar)  [Temperature = 298.15 K]
DOCKED: USER    
DOCKED: USER    (1) Final Intermolecular Energy     =   -0.67 kcal/mol
DOCKED: USER        vdW + Hbond + desolv Energy     =   +0.24 kcal/mol
DOCKED: USER        Electrostatic Energy            =   -0.92 kcal/mol
DOCKED: USER    (2) Final Total Internal Energy     =   +0.00 kcal/mol
DOCKED: USER    (3) Torsional Free Energy           =   +0.00 kcal/mol
DOCKED: USER    (4) Unbound System's Energy  [=(2)] =   +0.00 kcal/mol
DOCKED: USER    
DOCKED: USER    
DOCKED: USER    NEWDPF move ../ligands/decavanadate.pdbqt
DOCKED: USER    NEWDPF about 38.166447 -0.097658 117.776763
DOCKED: USER    NEWDPF tran0 -18.729273 -18.213482 -27.690765
DOCKED: USER    NEWDPF quaternion0 -0.001216 0.357422 0.505702 0.785184
DOCKED: USER    NEWDPF axisangle0 -0.001964 0.577174 0.816619 76.524687
DOCKED: USER    NEWDPF quat0 -0.001964 0.577174 0.816619 76.524687
DOCKED: USER  keepresnum = 1 
DOCKED: USER  
DOCKED: USER                              x       y       z     vdW  Elec       q    Type
DOCKED: USER                           _______ _______ _______ _____ _____    ______ ____
DOCKED: ROOT
DOCKED: ATOM      1  O28 DVT A 531     -15.195 -14.783 -27.551 +0.00 +0.07    -0.750 OA
DOCKED: ATOM      2  V10 DVT A 531     -16.037 -16.109 -27.731 +0.02 -0.09    +1.500 Zn
DOCKED: ATOM      3  O18 DVT A 531     -16.465 -16.284 -29.524 +0.03 -0.04    -0.750 OA
DOCKED: ATOM      4  O15 DVT A 531     -14.811 -17.433 -28.105 +0.01 +0.07    -0.750 OA
DOCKED: ATOM      5  V1  DVT A 531     -15.496 -19.127 -28.294 +0.01 -0.13    +1.500 Zn
DOCKED: ATOM      6  O5  DVT A 531     -14.210 -20.060 -28.638 +0.00 +0.10    -0.750 OA
DOCKED: ATOM      7  O27 DVT A 531     -16.051 -16.753 -25.958 +0.00 +0.07    -0.750 OA
DOCKED: ATOM      8  V9  DVT A 531     -16.926 -18.344 -25.683 +0.00 -0.13    +1.500 Zn
DOCKED: ATOM      9  O2  DVT A 531     -17.445 -17.986 -27.826 +0.01 +0.02    -0.750 OA
DOCKED: ATOM     10  O4  DVT A 531     -15.616 -19.329 -26.428 +0.00 +0.07    -0.750 OA
DOCKED: ATOM     11  O8  DVT A 531     -18.254 -19.780 -26.130 +0.00 +0.05    -0.750 OA
DOCKED: ATOM     12  O26 DVT A 531     -16.800 -18.474 -24.088 +0.00 +0.07    -0.750 OA
DOCKED: ATOM     13  O24 DVT A 531     -18.656 -17.312 -25.588 +0.00 +0.05    -0.750 OA
DOCKED: ATOM     14  V7  DVT A 531     -19.857 -18.932 -25.365 +0.00 -0.10    +1.500 Zn
DOCKED: ATOM     15  O11 DVT A 531     -20.881 -20.286 -25.916 +0.00 +0.05    -0.750 OA
DOCKED: ATOM     16  O25 DVT A 531     -19.615 -18.860 -23.781 +0.00 +0.07    -0.750 OA
DOCKED: ATOM     17  O21 DVT A 531     -21.283 -17.767 -25.415 +0.00 +0.05    -0.750 OA
DOCKED: ATOM     18  V6  DVT A 531     -22.000 -17.305 -27.079 +0.05 -0.01    +1.500 Zn
DOCKED: ATOM     19  O19 DVT A 531     -21.814 -16.963 -28.918 +0.04 -0.10    -0.750 OA
DOCKED: ATOM     20  O22 DVT A 531     -23.216 -16.415 -26.534 +0.01 +0.03    -0.750 OA
DOCKED: ATOM     21  O6  DVT A 531     -22.725 -18.987 -27.334 +0.02 +0.01    -0.750 OA
DOCKED: ATOM     22  V8  DVT A 531     -19.019 -16.606 -27.324 +0.03 -0.01    +1.500 Zn
DOCKED: ATOM     23  O20 DVT A 531     -20.504 -15.882 -27.072 +0.02 +0.01    -0.750 OA
DOCKED: ATOM     24  O23 DVT A 531     -17.866 -15.396 -27.246 +0.01 +0.02    -0.750 OA
DOCKED: ATOM     25  O16 DVT A 531     -20.030 -18.428 -27.544 +0.02 -0.00    -0.750 OA
DOCKED: ATOM     26  V5  DVT A 531     -21.454 -20.301 -27.710 +0.03 -0.02    +1.500 Zn
DOCKED: ATOM     27  O14 DVT A 531     -22.285 -21.669 -27.875 +0.01 +0.02    -0.750 OA
DOCKED: ATOM     28  O7  DVT A 531     -19.612 -21.052 -28.116 +0.01 +0.02    -0.750 OA
DOCKED: ATOM     29  V2  DVT A 531     -18.460 -19.810 -28.078 +0.02 -0.03    +1.500 Zn
DOCKED: ATOM     30  O1  DVT A 531     -16.986 -20.553 -28.389 +0.01 +0.05    -0.750 OA
DOCKED: ATOM     31  O17 DVT A 531     -19.111 -16.714 -29.257 +0.03 -0.15    -0.750 OA
DOCKED: ATOM     32  V4  DVT A 531     -20.580 -18.012 -29.646 +0.17 +0.39    +1.500 Zn
DOCKED: ATOM     33  O13 DVT A 531     -21.450 -19.596 -29.472 +0.05 -0.08    -0.750 OA
DOCKED: ATOM     34  O12 DVT A 531     -20.749 -17.825 -31.236 -0.36 -0.79    -0.750 OA
DOCKED: ATOM     35  O9  DVT A 531     -18.902 -19.074 -29.753 +0.03 -0.12    -0.750 OA
DOCKED: ATOM     36  V3  DVT A 531     -17.518 -17.640 -30.008 +0.09 +0.30    +1.500 Zn
DOCKED: ATOM     37  O3  DVT A 531     -16.108 -18.783 -30.024 +0.02 +0.00    -0.750 OA
DOCKED: ATOM     38  O10 DVT A 531     -17.726 -17.483 -31.610 -0.14 -0.71    -0.750 OA
DOCKED: ENDROOT
DOCKED: TORSDOF 0
DOCKED: TER
DOCKED: ENDMDL
________________________________________________________________________________


	BEGINNING GENETIC ALGORITHM DOCKING 18 of 50
Run: 18 Seed: 374192519 1841442312 [ Run 18 of 50 GA/GALS ]
Beginning LAMARCKIAN GENETIC ALGORITHM (LGA), with a maximum of 2500000 energy evaluations.

Final-Value: -0.698


	FINAL GENETIC ALGORITHM DOCKED STATE
	_______________________________________________


Detailed state:  trans -18.676 -18.093 -27.681 quatxyzw -0.525210 0.032273 -0.723682 0.446538 center 38.166 -0.098 117.777 ntor 0
State:	-18.676 -18.093 -27.681  -0.587  0.036 -0.809 126.956  

DOCKED: MODEL       18
DOCKED: USER    Run = 18
DOCKED: USER    DPF = atp_pocket.dpf
DOCKED: USER  
DOCKED: USER    Estimated Free Energy of Binding    =   -0.70 kcal/mol  [=(1)+(2)+(3)-(4)]
DOCKED: USER    Estimated Inhibition Constant, Ki   =  307.84 mM (millimolar)  [Temperature = 298.15 K]
DOCKED: USER    
DOCKED: USER    (1) Final Intermolecular Energy     =   -0.70 kcal/mol
DOCKED: USER        vdW + Hbond + desolv Energy     =   +0.25 kcal/mol
DOCKED: USER        Electrostatic Energy            =   -0.94 kcal/mol
DOCKED: USER    (2) Final Total Internal Energy     =   +0.00 kcal/mol
DOCKED: USER    (3) Torsional Free Energy           =   +0.00 kcal/mol
DOCKED: USER    (4) Unbound System's Energy  [=(2)] =   +0.00 kcal/mol
DOCKED: USER    
DOCKED: USER    
DOCKED: USER    NEWDPF move ../ligands/decavanadate.pdbqt
DOCKED: USER    NEWDPF about 38.166447 -0.097658 117.776763
DOCKED: USER    NEWDPF tran0 -18.675957 -18.092952 -27.680749
DOCKED: USER    NEWDPF quaternion0 -0.525210 0.032273 -0.723682 0.446538
DOCKED: USER    NEWDPF axisangle0 -0.586982 0.036069 -0.808796 126.956434
DOCKED: USER    NEWDPF quat0 -0.586982 0.036069 -0.808796 126.956434
DOCKED: USER  keepresnum = 1 
DOCKED: USER  
DOCKED: USER                              x       y       z     vdW  Elec       q    Type
DOCKED: USER                           _______ _______ _______ _____ _____    ______ ____
DOCKED: ROOT
DOCKED: ATOM      1  O28 DVT A 531     -22.143 -21.589 -27.498 +0.01 +0.03    -0.750 OA
DOCKED: ATOM      2  V10 DVT A 531     -21.341 -20.227 -27.545 +0.03 -0.03    +1.500 Zn
DOCKED: ATOM      3  O18 DVT A 531     -21.407 -19.576 -29.277 +0.05 -0.07    -0.750 OA
DOCKED: ATOM      4  O15 DVT A 531     -22.582 -18.905 -27.219 +0.02 +0.01    -0.750 OA
DOCKED: ATOM      5  V1  DVT A 531     -21.924 -17.193 -27.137 +0.05 -0.01    +1.500 Zn
DOCKED: ATOM      6  O5  DVT A 531     -23.225 -16.258 -26.868 +0.02 +0.02    -0.750 OA
DOCKED: ATOM      7  O27 DVT A 531     -20.831 -20.064 -25.737 +0.00 +0.05    -0.750 OA
DOCKED: ATOM      8  V9  DVT A 531     -19.867 -18.563 -25.301 +0.00 -0.10    +1.500 Zn
DOCKED: ATOM      9  O2  DVT A 531     -19.955 -18.332 -27.521 +0.01 -0.00    -0.750 OA
DOCKED: ATOM     10  O4  DVT A 531     -21.299 -17.475 -25.385 +0.00 +0.05    -0.750 OA
DOCKED: ATOM     11  O8  DVT A 531     -18.666 -17.005 -25.698 +0.00 +0.05    -0.750 OA
DOCKED: ATOM     12  O26 DVT A 531     -19.554 -18.856 -23.754 +0.00 +0.07    -0.750 OA
DOCKED: ATOM     13  O24 DVT A 531     -18.207 -19.510 -25.946 +0.00 +0.05    -0.750 OA
DOCKED: ATOM     14  V7  DVT A 531     -16.942 -17.954 -25.639 +0.00 -0.13    +1.500 Zn
DOCKED: ATOM     15  O11 DVT A 531     -16.065 -16.461 -26.072 +0.00 +0.07    -0.750 OA
DOCKED: ATOM     16  O25 DVT A 531     -16.751 -18.443 -24.123 +0.00 +0.07    -0.750 OA
DOCKED: ATOM     17  O21 DVT A 531     -15.617 -19.004 -26.371 +0.00 +0.07    -0.750 OA
DOCKED: ATOM     18  V6  DVT A 531     -15.390 -18.989 -28.226 +0.01 -0.13    +1.500 Zn
DOCKED: ATOM     19  O19 DVT A 531     -16.075 -18.851 -29.971 +0.02 +0.01    -0.750 OA
DOCKED: ATOM     20  O22 DVT A 531     -14.099 -19.938 -28.278 +0.00 +0.10    -0.750 OA
DOCKED: ATOM     21  O6  DVT A 531     -14.711 -17.270 -28.218 +0.01 +0.07    -0.750 OA
DOCKED: ATOM     22  V8  DVT A 531     -18.346 -19.727 -27.837 +0.02 -0.04    +1.500 Zn
DOCKED: ATOM     23  O20 DVT A 531     -16.871 -20.427 -28.190 +0.01 +0.05    -0.750 OA
DOCKED: ATOM     24  O23 DVT A 531     -19.471 -20.964 -27.770 +0.01 +0.03    -0.750 OA
DOCKED: ATOM     25  O16 DVT A 531     -17.378 -17.868 -27.838 +0.01 +0.02    -0.750 OA
DOCKED: ATOM     26  V5  DVT A 531     -15.996 -15.958 -27.885 +0.02 -0.08    +1.500 Zn
DOCKED: ATOM     27  O14 DVT A 531     -15.200 -14.560 -27.904 +0.01 +0.06    -0.750 OA
DOCKED: ATOM     28  O7  DVT A 531     -17.856 -15.206 -27.572 +0.01 +0.01    -0.750 OA
DOCKED: ATOM     29  V2  DVT A 531     -18.991 -16.464 -27.552 +0.03 +0.01    +1.500 Zn
DOCKED: ATOM     30  O1  DVT A 531     -20.472 -15.729 -27.252 +0.02 +0.00    -0.750 OA
DOCKED: ATOM     31  O17 DVT A 531     -18.775 -19.119 -29.626 +0.03 -0.10    -0.750 OA
DOCKED: ATOM     32  V4  DVT A 531     -17.428 -17.703 -30.043 +0.09 +0.29    +1.500 Zn
DOCKED: ATOM     33  O13 DVT A 531     -16.496 -16.182 -29.702 +0.03 -0.06    -0.750 OA
DOCKED: ATOM     34  O12 DVT A 531     -17.700 -17.465 -31.612 -0.15 -0.70    -0.750 OA
DOCKED: ATOM     35  O9  DVT A 531     -19.040 -16.722 -29.416 +0.03 -0.17    -0.750 OA
DOCKED: ATOM     36  V3  DVT A 531     -20.484 -18.098 -29.655 +0.16 +0.39    +1.500 Zn
DOCKED: ATOM     37  O3  DVT A 531     -21.811 -17.051 -28.995 +0.04 -0.11    -0.750 OA
DOCKED: ATOM     38  O10 DVT A 531     -20.720 -17.826 -31.237 -0.34 -0.80    -0.750 OA
DOCKED: ENDROOT
DOCKED: TORSDOF 0
DOCKED: TER
DOCKED: ENDMDL
________________________________________________________________________________


	BEGINNING GENETIC ALGORITHM DOCKING 19 of 50
Run: 19 Seed: 58018199 344463112 [ Run 19 of 50 GA/GALS ]
Beginning LAMARCKIAN GENETIC ALGORITHM (LGA), with a maximum of 2500000 energy evaluations.

Final-Value: -0.690


	FINAL GENETIC ALGORITHM DOCKED STATE
	_______________________________________________


Detailed state:  trans -18.656 -18.546 -27.746 quatxyzw 0.551217 -0.078185 0.706181 -0.437442 center 38.166 -0.098 117.777 ntor 0
State:	-18.656 -18.546 -27.746   0.613 -0.087  0.785 -128.118  

DOCKED: MODEL       19
DOCKED: USER    Run = 19
DOCKED: USER    DPF = atp_pocket.dpf
DOCKED: USER  
DOCKED: USER    Estimated Free Energy of Binding    =   -0.69 kcal/mol  [=(1)+(2)+(3)-(4)]
DOCKED: USER    Estimated Inhibition Constant, Ki   =  312.25 mM (millimolar)  [Temperature = 298.15 K]
DOCKED: USER    
DOCKED: USER    (1) Final Intermolecular Energy     =   -0.69 kcal/mol
DOCKED: USER        vdW + Hbond + desolv Energy     =   +0.20 kcal/mol
DOCKED: USER        Electrostatic Energy            =   -0.89 kcal/mol
DOCKED: USER    (2) Final Total Internal Energy     =   +0.00 kcal/mol
DOCKED: USER    (3) Torsional Free Energy           =   +0.00 kcal/mol
DOCKED: USER    (4) Unbound System's Energy  [=(2)] =   +0.00 kcal/mol
DOCKED: USER    
DOCKED: USER    
DOCKED: USER    NEWDPF move ../ligands/decavanadate.pdbqt
DOCKED: USER    NEWDPF about 38.166447 -0.097658 117.776763
DOCKED: USER    NEWDPF tran0 -18.655774 -18.545757 -27.745634
DOCKED: USER    NEWDPF quaternion0 0.551217 -0.078185 0.706181 -0.437442
DOCKED: USER    NEWDPF axisangle0 0.612976 -0.086944 0.785303 -128.118385
DOCKED: USER    NEWDPF quat0 0.612976 -0.086944 0.785303 -128.118385
DOCKED: USER  keepresnum = 1 
DOCKED: USER  
DOCKED: USER                              x       y       z     vdW  Elec       q    Type
DOCKED: USER                           _______ _______ _______ _____ _____    ______ ____
DOCKED: ROOT
DOCKED: ATOM      1  O28 DVT A 531     -22.289 -21.871 -27.855 +0.01 +0.03    -0.750 OA
DOCKED: ATOM      2  V10 DVT A 531     -21.422 -20.552 -27.779 +0.03 -0.03    +1.500 Zn
DOCKED: ATOM      3  O18 DVT A 531     -21.476 -19.728 -29.435 +0.05 -0.07    -0.750 OA
DOCKED: ATOM      4  O15 DVT A 531     -22.592 -19.211 -27.301 +0.02 +0.01    -0.750 OA
DOCKED: ATOM      5  V1  DVT A 531     -21.848 -17.549 -27.060 +0.04 -0.01    +1.500 Zn
DOCKED: ATOM      6  O5  DVT A 531     -23.098 -16.585 -26.677 +0.01 +0.02    -0.750 OA
DOCKED: ATOM      7  O27 DVT A 531     -20.882 -20.596 -25.972 +0.00 +0.05    -0.750 OA
DOCKED: ATOM      8  V9  DVT A 531     -19.840 -19.195 -25.405 +0.00 -0.10    +1.500 Zn
DOCKED: ATOM      9  O2  DVT A 531     -19.943 -18.738 -27.589 +0.01 -0.00    -0.750 OA
DOCKED: ATOM     10  O4  DVT A 531     -21.217 -18.036 -25.356 +0.00 +0.05    -0.750 OA
DOCKED: ATOM     11  O8  DVT A 531     -18.568 -17.664 -25.664 +0.00 +0.05    -0.750 OA
DOCKED: ATOM     12  O26 DVT A 531     -19.524 -19.656 -23.900 +0.00 +0.07    -0.750 OA
DOCKED: ATOM     13  O24 DVT A 531     -18.237 -20.151 -26.169 +0.00 +0.06    -0.750 OA
DOCKED: ATOM     14  V7  DVT A 531     -16.893 -18.696 -25.730 +0.00 -0.13    +1.500 Zn
DOCKED: ATOM     15  O11 DVT A 531     -15.948 -17.212 -26.026 +0.00 +0.07    -0.750 OA
DOCKED: ATOM     16  O25 DVT A 531     -16.708 -19.344 -24.273 +0.00 +0.07    -0.750 OA
DOCKED: ATOM     17  O21 DVT A 531     -15.631 -19.730 -26.585 +0.00 +0.07    -0.750 OA
DOCKED: ATOM     18  V6  DVT A 531     -15.425 -19.540 -28.433 +0.01 -0.14    +1.500 Zn
DOCKED: ATOM     19  O19 DVT A 531     -16.123 -19.194 -30.144 +0.02 +0.01    -0.750 OA
DOCKED: ATOM     20  O22 DVT A 531     -14.184 -20.539 -28.601 +0.00 +0.10    -0.750 OA
DOCKED: ATOM     21  O6  DVT A 531     -14.662 -17.865 -28.265 +0.01 +0.08    -0.750 OA
DOCKED: ATOM     22  V8  DVT A 531     -18.409 -20.170 -28.070 +0.02 -0.05    +1.500 Zn
DOCKED: ATOM     23  O20 DVT A 531     -16.975 -20.901 -28.515 +0.01 +0.05    -0.750 OA
DOCKED: ATOM     24  O23 DVT A 531     -19.593 -21.351 -28.108 +0.01 +0.03    -0.750 OA
DOCKED: ATOM     25  O16 DVT A 531     -17.351 -18.369 -27.901 +0.01 +0.02    -0.750 OA
DOCKED: ATOM     26  V5  DVT A 531     -15.875 -16.533 -27.781 +0.01 -0.09    +1.500 Zn
DOCKED: ATOM     27  O14 DVT A 531     -15.012 -15.180 -27.673 +0.01 +0.07    -0.750 OA
DOCKED: ATOM     28  O7  DVT A 531     -17.692 -15.728 -27.364 +0.01 +0.02    -0.750 OA
DOCKED: ATOM     29  V2  DVT A 531     -18.888 -16.924 -27.450 +0.03 +0.00    +1.500 Zn
DOCKED: ATOM     30  O1  DVT A 531     -20.327 -16.153 -27.052 +0.01 +0.01    -0.750 OA
DOCKED: ATOM     31  O17 DVT A 531     -18.829 -19.365 -29.782 +0.03 -0.10    -0.750 OA
DOCKED: ATOM     32  V4  DVT A 531     -17.418 -17.980 -30.078 +0.09 +0.27    +1.500 Zn
DOCKED: ATOM     33  O13 DVT A 531     -16.408 -16.549 -29.602 +0.03 -0.04    -0.750 OA
DOCKED: ATOM     34  O12 DVT A 531     -17.697 -17.574 -31.610 -0.17 -0.68    -0.750 OA
DOCKED: ATOM     35  O9  DVT A 531     -18.972 -16.991 -29.329 +0.03 -0.15    -0.750 OA
DOCKED: ATOM     36  V3  DVT A 531     -20.485 -18.265 -29.680 +0.16 +0.38    +1.500 Zn
DOCKED: ATOM     37  O3  DVT A 531     -21.751 -17.227 -28.896 +0.04 -0.10    -0.750 OA
DOCKED: ATOM     38  O10 DVT A 531     -20.727 -17.824 -31.223 -0.35 -0.79    -0.750 OA
DOCKED: ENDROOT
DOCKED: TORSDOF 0
DOCKED: TER
DOCKED: ENDMDL
________________________________________________________________________________


	BEGINNING GENETIC ALGORITHM DOCKING 20 of 50
Run: 20 Seed: 201661311 495891631 [ Run 20 of 50 GA/GALS ]
Beginning LAMARCKIAN GENETIC ALGORITHM (LGA), with a maximum of 2500000 energy evaluations.

Final-Value: -0.855


	FINAL GENETIC ALGORITHM DOCKED STATE
	_______________________________________________


Detailed state:  trans -18.181 -14.332 -29.454 quatxyzw 0.935144 -0.350237 -0.049316 -0.020196 center 38.166 -0.098 117.777 ntor 0
State:	-18.181 -14.332 -29.454   0.935 -0.350 -0.049 -177.686  

DOCKED: MODEL       20
DOCKED: USER    Run = 20
DOCKED: USER    DPF = atp_pocket.dpf
DOCKED: USER  
DOCKED: USER    Estimated Free Energy of Binding    =   -0.86 kcal/mol  [=(1)+(2)+(3)-(4)]
DOCKED: USER    Estimated Inhibition Constant, Ki   =  236.10 mM (millimolar)  [Temperature = 298.15 K]
DOCKED: USER    
DOCKED: USER    (1) Final Intermolecular Energy     =   -0.86 kcal/mol
DOCKED: USER        vdW + Hbond + desolv Energy     =   +1.00 kcal/mol
DOCKED: USER        Electrostatic Energy            =   -1.85 kcal/mol
DOCKED: USER    (2) Final Total Internal Energy     =   +0.00 kcal/mol
DOCKED: USER    (3) Torsional Free Energy           =   +0.00 kcal/mol
DOCKED: USER    (4) Unbound System's Energy  [=(2)] =   +0.00 kcal/mol
DOCKED: USER    
DOCKED: USER    
DOCKED: USER    NEWDPF move ../ligands/decavanadate.pdbqt
DOCKED: USER    NEWDPF about 38.166447 -0.097658 117.776763
DOCKED: USER    NEWDPF tran0 -18.181006 -14.332069 -29.454134
DOCKED: USER    NEWDPF quaternion0 0.935144 -0.350237 -0.049316 -0.020196
DOCKED: USER    NEWDPF axisangle0 0.935335 -0.350309 -0.049326 -177.685540
DOCKED: USER    NEWDPF quat0 0.935335 -0.350309 -0.049326 -177.685540
DOCKED: USER  keepresnum = 1 
DOCKED: USER  
DOCKED: USER                              x       y       z     vdW  Elec       q    Type
DOCKED: USER                           _______ _______ _______ _____ _____    ______ ____
DOCKED: ROOT
DOCKED: ATOM      1  O28 DVT A 531     -22.439 -16.545 -28.337 +0.03 -0.05    -0.750 OA
DOCKED: ATOM      2  V10 DVT A 531     -20.955 -16.001 -28.360 +0.10 +0.12    +1.500 Zn
DOCKED: ATOM      3  O18 DVT A 531     -20.852 -14.553 -27.212 +0.02 +0.02    -0.750 OA
DOCKED: ATOM      4  O15 DVT A 531     -20.079 -16.882 -26.998 +0.01 +0.01    -0.750 OA
DOCKED: ATOM      5  V1  DVT A 531     -18.289 -16.506 -26.824 +0.01 -0.06    +1.500 Zn
DOCKED: ATOM      6  O5  DVT A 531     -17.800 -17.390 -25.552 +0.00 +0.06    -0.750 OA
DOCKED: ATOM      7  O27 DVT A 531     -20.153 -17.232 -29.544 +0.02 -0.21    -0.750 OA
DOCKED: ATOM      8  V9  DVT A 531     -18.360 -16.997 -29.862 +0.11 +0.42    +1.500 Zn
DOCKED: ATOM      9  O2  DVT A 531     -18.776 -15.172 -28.643 +0.03 -0.05    -0.750 OA
DOCKED: ATOM     10  O4  DVT A 531     -17.869 -17.649 -28.257 +0.02 -0.02    -0.750 OA
DOCKED: ATOM     11  O8  DVT A 531     -16.660 -15.933 -29.945 +0.03 -0.09    -0.750 OA
DOCKED: ATOM     12  O26 DVT A 531     -18.107 -18.139 -30.962 -0.04 -0.38    -0.750 OA
DOCKED: ATOM     13  O24 DVT A 531     -18.844 -15.604 -31.238 +0.11 -0.52    -0.750 OA
DOCKED: ATOM     14  V7  DVT A 531     -16.936 -15.095 -31.704 +0.21 +0.69    +1.500 Zn
DOCKED: ATOM     15  O11 DVT A 531     -15.412 -14.180 -31.547 +0.06 -0.09    -0.750 OA
DOCKED: ATOM     16  O25 DVT A 531     -16.909 -16.287 -32.778 -0.31 -0.82    -0.750 OA
DOCKED: ATOM     17  O21 DVT A 531     -17.647 -13.816 -32.823 -0.00 -0.65    -0.750 OA
DOCKED: ATOM     18  V6  DVT A 531     -18.057 -12.137 -32.112 +0.24 +0.67    +1.500 Zn
DOCKED: ATOM     19  O19 DVT A 531     -18.626 -11.038 -30.696 +0.05 -0.04    -0.750 OA
DOCKED: ATOM     20  O22 DVT A 531     -18.504 -11.440 -33.484 -0.36 -0.84    -0.750 OA
DOCKED: ATOM     21  O6  DVT A 531     -16.274 -11.687 -31.915 +0.04 -0.17    -0.750 OA
DOCKED: ATOM     22  V8  DVT A 531     -19.594 -14.105 -30.324 +0.17 +0.36    +1.500 Zn
DOCKED: ATOM     23  O20 DVT A 531     -19.836 -13.044 -31.592 +0.05 -0.24    -0.750 OA
DOCKED: ATOM     24  O23 DVT A 531     -21.066 -14.835 -30.008 +0.04 -0.18    -0.750 OA
DOCKED: ATOM     25  O16 DVT A 531     -17.593 -13.485 -30.287 +0.05 -0.11    -0.750 OA
DOCKED: ATOM     26  V5  DVT A 531     -15.421 -12.597 -30.528 +0.09 +0.02    +1.500 Zn
DOCKED: ATOM     27  O14 DVT A 531     -13.898 -12.078 -30.543 +0.03 +0.07    -0.750 OA
DOCKED: ATOM     28  O7  DVT A 531     -15.269 -13.831 -28.922 +0.02 +0.04    -0.750 OA
DOCKED: ATOM     29  V2  DVT A 531     -16.776 -14.528 -28.584 +0.04 -0.01    +1.500 Zn
DOCKED: ATOM     30  O1  DVT A 531     -16.517 -15.547 -27.273 +0.01 +0.04    -0.750 OA
DOCKED: ATOM     31  O17 DVT A 531     -19.665 -12.808 -28.886 +0.03 -0.01    -0.750 OA
DOCKED: ATOM     32  V4  DVT A 531     -18.050 -11.655 -29.132 +0.05 -0.03    +1.500 Zn
DOCKED: ATOM     33  O13 DVT A 531     -16.276 -11.357 -29.373 +0.02 +0.04    -0.750 OA
DOCKED: ATOM     34  O12 DVT A 531     -18.346 -10.475 -28.077 +0.00 +0.07    -0.750 OA
DOCKED: ATOM     35  O9  DVT A 531     -17.525 -13.006 -27.771 +0.01 +0.04    -0.750 OA
DOCKED: ATOM     36  V3  DVT A 531     -19.311 -13.659 -27.122 +0.01 -0.06    +1.500 Zn
DOCKED: ATOM     37  O3  DVT A 531     -18.623 -14.880 -25.969 +0.00 +0.05    -0.750 OA
DOCKED: ATOM     38  O10 DVT A 531     -19.567 -12.447 -26.074 +0.00 +0.06    -0.750 OA
DOCKED: ENDROOT
DOCKED: TORSDOF 0
DOCKED: TER
DOCKED: ENDMDL
________________________________________________________________________________


	BEGINNING GENETIC ALGORITHM DOCKING 21 of 50
Run: 21 Seed: 1461056769 1782114801 [ Run 21 of 50 GA/GALS ]
Beginning LAMARCKIAN GENETIC ALGORITHM (LGA), with a maximum of 2500000 energy evaluations.

Final-Value: -0.667


	FINAL GENETIC ALGORITHM DOCKED STATE
	_______________________________________________


Detailed state:  trans -18.155 -17.927 -27.771 quatxyzw 0.528607 -0.004895 0.707133 -0.469588 center 38.166 -0.098 117.777 ntor 0
State:	-18.155 -17.927 -27.771   0.599 -0.006  0.801 -123.985  

DOCKED: MODEL       21
DOCKED: USER    Run = 21
DOCKED: USER    DPF = atp_pocket.dpf
DOCKED: USER  
DOCKED: USER    Estimated Free Energy of Binding    =   -0.67 kcal/mol  [=(1)+(2)+(3)-(4)]
DOCKED: USER    Estimated Inhibition Constant, Ki   =  324.58 mM (millimolar)  [Temperature = 298.15 K]
DOCKED: USER    
DOCKED: USER    (1) Final Intermolecular Energy     =   -0.67 kcal/mol
DOCKED: USER        vdW + Hbond + desolv Energy     =   +0.24 kcal/mol
DOCKED: USER        Electrostatic Energy            =   -0.90 kcal/mol
DOCKED: USER    (2) Final Total Internal Energy     =   +0.00 kcal/mol
DOCKED: USER    (3) Torsional Free Energy           =   +0.00 kcal/mol
DOCKED: USER    (4) Unbound System's Energy  [=(2)] =   +0.00 kcal/mol
DOCKED: USER    
DOCKED: USER    
DOCKED: USER    NEWDPF move ../ligands/decavanadate.pdbqt
DOCKED: USER    NEWDPF about 38.166447 -0.097658 117.776763
DOCKED: USER    NEWDPF tran0 -18.155082 -17.926944 -27.771090
DOCKED: USER    NEWDPF quaternion0 0.528607 -0.004895 0.707133 -0.469588
DOCKED: USER    NEWDPF axisangle0 0.598727 -0.005545 0.800934 -123.984906
DOCKED: USER    NEWDPF quat0 0.598727 -0.005545 0.800934 -123.984906
DOCKED: USER  keepresnum = 1 
DOCKED: USER  
DOCKED: USER                              x       y       z     vdW  Elec       q    Type
DOCKED: USER                           _______ _______ _______ _____ _____    ______ ____
DOCKED: ROOT
DOCKED: ATOM      1  O28 DVT A 531     -21.670 -21.334 -27.214 +0.01 +0.03    -0.750 OA
DOCKED: ATOM      2  V10 DVT A 531     -20.848 -19.994 -27.381 +0.02 -0.04    +1.500 Zn
DOCKED: ATOM      3  O18 DVT A 531     -20.987 -19.446 -29.143 +0.04 -0.07    -0.750 OA
DOCKED: ATOM      4  O15 DVT A 531     -22.048 -18.630 -27.076 +0.01 +0.01    -0.750 OA
DOCKED: ATOM      5  V1  DVT A 531     -21.356 -16.929 -27.128 +0.05 -0.01    +1.500 Zn
DOCKED: ATOM      6  O5  DVT A 531     -22.626 -15.954 -26.854 +0.01 +0.02    -0.750 OA
DOCKED: ATOM      7  O27 DVT A 531     -20.247 -19.735 -25.611 +0.00 +0.05    -0.750 OA
DOCKED: ATOM      8  V9  DVT A 531     -19.237 -18.231 -25.314 +0.00 -0.10    +1.500 Zn
DOCKED: ATOM      9  O2  DVT A 531     -19.429 -18.130 -27.537 +0.01 -0.00    -0.750 OA
DOCKED: ATOM     10  O4  DVT A 531     -20.652 -17.120 -25.394 +0.00 +0.05    -0.750 OA
DOCKED: ATOM     11  O8  DVT A 531     -18.029 -16.724 -25.860 +0.00 +0.05    -0.750 OA
DOCKED: ATOM     12  O26 DVT A 531     -18.854 -18.437 -23.768 +0.00 +0.07    -0.750 OA
DOCKED: ATOM     13  O24 DVT A 531     -17.627 -19.248 -25.979 +0.00 +0.06    -0.750 OA
DOCKED: ATOM     14  V7  DVT A 531     -16.322 -17.703 -25.826 +0.00 -0.13    +1.500 Zn
DOCKED: ATOM     15  O11 DVT A 531     -15.440 -16.257 -26.389 +0.00 +0.07    -0.750 OA
DOCKED: ATOM     16  O25 DVT A 531     -16.065 -18.105 -24.294 +0.00 +0.08    -0.750 OA
DOCKED: ATOM     17  O21 DVT A 531     -15.053 -18.821 -26.556 +0.00 +0.08    -0.750 OA
DOCKED: ATOM     18  V6  DVT A 531     -14.916 -18.921 -28.417 +0.01 -0.15    +1.500 Zn
DOCKED: ATOM     19  O19 DVT A 531     -15.683 -18.873 -30.133 +0.02 +0.03    -0.750 OA
DOCKED: ATOM     20  O22 DVT A 531     -13.646 -19.898 -28.474 +0.00 +0.11    -0.750 OA
DOCKED: ATOM     21  O6  DVT A 531     -14.207 -17.219 -28.546 +0.01 +0.09    -0.750 OA
DOCKED: ATOM     22  V8  DVT A 531     -17.862 -19.574 -27.844 +0.02 -0.05    +1.500 Zn
DOCKED: ATOM     23  O20 DVT A 531     -16.418 -20.324 -28.224 +0.01 +0.06    -0.750 OA
DOCKED: ATOM     24  O23 DVT A 531     -19.004 -20.781 -27.650 +0.01 +0.03    -0.750 OA
DOCKED: ATOM     25  O16 DVT A 531     -16.863 -17.739 -28.003 +0.01 +0.02    -0.750 OA
DOCKED: ATOM     26  V5  DVT A 531     -15.450 -15.864 -28.231 +0.02 -0.10    +1.500 Zn
DOCKED: ATOM     27  O14 DVT A 531     -14.632 -14.486 -28.372 +0.01 +0.07    -0.750 OA
DOCKED: ATOM     28  O7  DVT A 531     -17.280 -15.057 -27.876 +0.02 +0.02    -0.750 OA
DOCKED: ATOM     29  V2  DVT A 531     -18.435 -16.287 -27.726 +0.03 +0.01    +1.500 Zn
DOCKED: ATOM     30  O1  DVT A 531     -19.886 -15.505 -27.400 +0.02 -0.00    -0.750 OA
DOCKED: ATOM     31  O17 DVT A 531     -18.367 -19.064 -29.644 +0.03 -0.09    -0.750 OA
DOCKED: ATOM     32  V4  DVT A 531     -17.017 -17.703 -30.209 +0.09 +0.26    +1.500 Zn
DOCKED: ATOM     33  O13 DVT A 531     -16.042 -16.185 -30.005 +0.03 -0.04    -0.750 OA
DOCKED: ATOM     34  O12 DVT A 531     -17.361 -17.553 -31.775 -0.33 -0.63    -0.750 OA
DOCKED: ATOM     35  O9  DVT A 531     -18.579 -16.654 -29.566 +0.02 -0.17    -0.750 OA
DOCKED: ATOM     36  V3  DVT A 531     -20.057 -18.012 -29.653 +0.14 +0.40    +1.500 Zn
DOCKED: ATOM     37  O3  DVT A 531     -21.332 -16.900 -28.994 +0.04 -0.12    -0.750 OA
DOCKED: ATOM     38  O10 DVT A 531     -20.365 -17.829 -31.236 -0.13 -0.85    -0.750 OA
DOCKED: ENDROOT
DOCKED: TORSDOF 0
DOCKED: TER
DOCKED: ENDMDL
________________________________________________________________________________


	BEGINNING GENETIC ALGORITHM DOCKING 22 of 50
Run: 22 Seed: 1043544939 502923238 [ Run 22 of 50 GA/GALS ]
Beginning LAMARCKIAN GENETIC ALGORITHM (LGA), with a maximum of 2500000 energy evaluations.

Final-Value: -0.659


	FINAL GENETIC ALGORITHM DOCKED STATE
	_______________________________________________


Detailed state:  trans -18.673 -17.991 -27.654 quatxyzw 0.018160 0.368306 0.490572 0.789532 center 38.166 -0.098 117.777 ntor 0
State:	-18.673 -17.991 -27.654   0.030  0.600  0.799 75.716  

DOCKED: MODEL       22
DOCKED: USER    Run = 22
DOCKED: USER    DPF = atp_pocket.dpf
DOCKED: USER  
DOCKED: USER    Estimated Free Energy of Binding    =   -0.66 kcal/mol  [=(1)+(2)+(3)-(4)]
DOCKED: USER    Estimated Inhibition Constant, Ki   =  328.90 mM (millimolar)  [Temperature = 298.15 K]
DOCKED: USER    
DOCKED: USER    (1) Final Intermolecular Energy     =   -0.66 kcal/mol
DOCKED: USER        vdW + Hbond + desolv Energy     =   +0.24 kcal/mol
DOCKED: USER        Electrostatic Energy            =   -0.90 kcal/mol
DOCKED: USER    (2) Final Total Internal Energy     =   +0.00 kcal/mol
DOCKED: USER    (3) Torsional Free Energy           =   +0.00 kcal/mol
DOCKED: USER    (4) Unbound System's Energy  [=(2)] =   +0.00 kcal/mol
DOCKED: USER    
DOCKED: USER    
DOCKED: USER    NEWDPF move ../ligands/decavanadate.pdbqt
DOCKED: USER    NEWDPF about 38.166447 -0.097658 117.776763
DOCKED: USER    NEWDPF tran0 -18.672770 -17.990737 -27.653838
DOCKED: USER    NEWDPF quaternion0 0.018160 0.368306 0.490572 0.789532
DOCKED: USER    NEWDPF axisangle0 0.029591 0.600131 0.799355 75.716489
DOCKED: USER    NEWDPF quat0 0.029591 0.600131 0.799355 75.716489
DOCKED: USER  keepresnum = 1 
DOCKED: USER  
DOCKED: USER                              x       y       z     vdW  Elec       q    Type
DOCKED: USER                           _______ _______ _______ _____ _____    ______ ____
DOCKED: ROOT
DOCKED: ATOM      1  O28 DVT A 531     -15.188 -14.508 -27.715 +0.01 +0.06    -0.750 OA
DOCKED: ATOM      2  V10 DVT A 531     -16.012 -15.854 -27.820 +0.02 -0.08    +1.500 Zn
DOCKED: ATOM      3  O18 DVT A 531     -16.446 -16.128 -29.598 +0.03 -0.05    -0.750 OA
DOCKED: ATOM      4  O15 DVT A 531     -14.769 -17.178 -28.132 +0.01 +0.07    -0.750 OA
DOCKED: ATOM      5  V1  DVT A 531     -15.429 -18.889 -28.228 +0.01 -0.13    +1.500 Zn
DOCKED: ATOM      6  O5  DVT A 531     -14.133 -19.820 -28.530 +0.00 +0.10    -0.750 OA
DOCKED: ATOM      7  O27 DVT A 531     -16.007 -16.404 -26.016 +0.00 +0.07    -0.750 OA
DOCKED: ATOM      8  V9  DVT A 531     -16.857 -17.991 -25.653 +0.00 -0.13    +1.500 Zn
DOCKED: ATOM      9  O2  DVT A 531     -17.393 -17.752 -27.808 +0.01 +0.02    -0.750 OA
DOCKED: ATOM     10  O4  DVT A 531     -15.537 -18.995 -26.353 +0.00 +0.07    -0.750 OA
DOCKED: ATOM     11  O8  DVT A 531     -18.167 -19.467 -26.016 +0.00 +0.05    -0.750 OA
DOCKED: ATOM     12  O26 DVT A 531     -16.721 -18.035 -24.054 +0.00 +0.07    -0.750 OA
DOCKED: ATOM     13  O24 DVT A 531     -18.602 -16.979 -25.602 +0.00 +0.05    -0.750 OA
DOCKED: ATOM     14  V7  DVT A 531     -19.778 -18.602 -25.288 +0.00 -0.10    +1.500 Zn
DOCKED: ATOM     15  O11 DVT A 531     -20.785 -19.997 -25.761 +0.00 +0.05    -0.750 OA
DOCKED: ATOM     16  O25 DVT A 531     -19.528 -18.445 -23.710 +0.00 +0.07    -0.750 OA
DOCKED: ATOM     17  O21 DVT A 531     -21.221 -17.462 -25.390 +0.00 +0.05    -0.750 OA
DOCKED: ATOM     18  V6  DVT A 531     -21.953 -17.098 -27.070 +0.05 -0.01    +1.500 Zn
DOCKED: ATOM     19  O19 DVT A 531     -21.782 -16.850 -28.926 +0.04 -0.10    -0.750 OA
DOCKED: ATOM     20  O22 DVT A 531     -23.179 -16.198 -26.566 +0.01 +0.03    -0.750 OA
DOCKED: ATOM     21  O6  DVT A 531     -22.655 -18.801 -27.233 +0.02 +0.01    -0.750 OA
DOCKED: ATOM     22  V8  DVT A 531     -18.984 -16.370 -27.370 +0.03 -0.00    +1.500 Zn
DOCKED: ATOM     23  O20 DVT A 531     -20.478 -15.656 -27.147 +0.02 +0.01    -0.750 OA
DOCKED: ATOM     24  O23 DVT A 531     -17.848 -15.142 -27.361 +0.01 +0.02    -0.750 OA
DOCKED: ATOM     25  O16 DVT A 531     -19.969 -18.216 -27.489 +0.01 -0.00    -0.750 OA
DOCKED: ATOM     26  V5  DVT A 531     -21.368 -20.114 -27.548 +0.03 -0.03    +1.500 Zn
DOCKED: ATOM     27  O14 DVT A 531     -22.179 -21.501 -27.636 +0.01 +0.03    -0.750 OA
DOCKED: ATOM     28  O7  DVT A 531     -19.517 -20.860 -27.925 +0.01 +0.03    -0.750 OA
DOCKED: ATOM     29  V2  DVT A 531     -18.383 -19.601 -27.959 +0.02 -0.03    +1.500 Zn
DOCKED: ATOM     30  O1  DVT A 531     -16.899 -20.339 -28.239 +0.01 +0.05    -0.750 OA
DOCKED: ATOM     31  O17 DVT A 531     -19.084 -16.580 -29.294 +0.03 -0.15    -0.750 OA
DOCKED: ATOM     32  V4  DVT A 531     -20.536 -17.918 -29.606 +0.16 +0.39    +1.500 Zn
DOCKED: ATOM     33  O13 DVT A 531     -21.383 -19.503 -29.344 +0.05 -0.07    -0.750 OA
DOCKED: ATOM     34  O12 DVT A 531     -20.716 -17.816 -31.203 -0.34 -0.78    -0.750 OA
DOCKED: ATOM     35  O9  DVT A 531     -18.843 -18.960 -29.667 +0.03 -0.12    -0.750 OA
DOCKED: ATOM     36  V3  DVT A 531     -17.482 -17.522 -30.005 +0.09 +0.31    +1.500 Zn
DOCKED: ATOM     37  O3  DVT A 531     -16.055 -18.644 -29.970 +0.02 +0.00    -0.750 OA
DOCKED: ATOM     38  O10 DVT A 531     -17.700 -17.452 -31.612 -0.15 -0.71    -0.750 OA
DOCKED: ENDROOT
DOCKED: TORSDOF 0
DOCKED: TER
DOCKED: ENDMDL
________________________________________________________________________________


	BEGINNING GENETIC ALGORITHM DOCKING 23 of 50
Run: 23 Seed: 181314628 1770750948 [ Run 23 of 50 GA/GALS ]
Beginning LAMARCKIAN GENETIC ALGORITHM (LGA), with a maximum of 2500000 energy evaluations.

Final-Value: -0.812


	FINAL GENETIC ALGORITHM DOCKED STATE
	_______________________________________________


Detailed state:  trans -16.649 -14.931 -29.683 quatxyzw 0.377037 0.371060 0.848560 0.010212 center 38.166 -0.098 117.777 ntor 0
State:	-16.649 -14.931 -29.683   0.377  0.371  0.849 178.830  

DOCKED: MODEL       23
DOCKED: USER    Run = 23
DOCKED: USER    DPF = atp_pocket.dpf
DOCKED: USER  
DOCKED: USER    Estimated Free Energy of Binding    =   -0.81 kcal/mol  [=(1)+(2)+(3)-(4)]
DOCKED: USER    Estimated Inhibition Constant, Ki   =  253.91 mM (millimolar)  [Temperature = 298.15 K]
DOCKED: USER    
DOCKED: USER    (1) Final Intermolecular Energy     =   -0.81 kcal/mol
DOCKED: USER        vdW + Hbond + desolv Energy     =   +0.61 kcal/mol
DOCKED: USER        Electrostatic Energy            =   -1.42 kcal/mol
DOCKED: USER    (2) Final Total Internal Energy     =   +0.00 kcal/mol
DOCKED: USER    (3) Torsional Free Energy           =   +0.00 kcal/mol
DOCKED: USER    (4) Unbound System's Energy  [=(2)] =   +0.00 kcal/mol
DOCKED: USER    
DOCKED: USER    
DOCKED: USER    NEWDPF move ../ligands/decavanadate.pdbqt
DOCKED: USER    NEWDPF about 38.166447 -0.097658 117.776763
DOCKED: USER    NEWDPF tran0 -16.649477 -14.930520 -29.682825
DOCKED: USER    NEWDPF quaternion0 0.377037 0.371060 0.848560 0.010212
DOCKED: USER    NEWDPF axisangle0 0.377056 0.371079 0.848604 178.829721
DOCKED: USER    NEWDPF quat0 0.377056 0.371079 0.848604 178.829721
DOCKED: USER  keepresnum = 1 
DOCKED: USER  
DOCKED: USER                              x       y       z     vdW  Elec       q    Type
DOCKED: USER                           _______ _______ _______ _____ _____    ______ ____
DOCKED: ROOT
DOCKED: ATOM      1  O28 DVT A 531     -14.409 -19.106 -28.334 +0.00 +0.09    -0.750 OA
DOCKED: ATOM      2  V10 DVT A 531     -15.448 -17.994 -28.763 +0.03 -0.10    +1.500 Zn
DOCKED: ATOM      3  O18 DVT A 531     -15.809 -18.205 -30.566 +0.03 -0.01    -0.750 OA
DOCKED: ATOM      4  O15 DVT A 531     -17.112 -18.756 -28.550 +0.02 +0.01    -0.750 OA
DOCKED: ATOM      5  V1  DVT A 531     -18.544 -17.662 -28.905 +0.07 +0.16    +1.500 Zn
DOCKED: ATOM      6  O5  DVT A 531     -19.852 -18.595 -28.661 +0.03 -0.06    -0.750 OA
DOCKED: ATOM      7  O27 DVT A 531     -15.734 -17.132 -27.109 +0.00 +0.06    -0.750 OA
DOCKED: ATOM      8  V9  DVT A 531     -16.932 -15.741 -27.121 +0.01 -0.08    +1.500 Zn
DOCKED: ATOM      9  O2  DVT A 531     -16.827 -16.174 -29.309 +0.03 -0.05    -0.750 OA
DOCKED: ATOM     10  O4  DVT A 531     -18.368 -16.822 -27.232 +0.01 +0.01    -0.750 OA
DOCKED: ATOM     11  O8  DVT A 531     -17.983 -14.263 -27.982 +0.02 +0.01    -0.750 OA
DOCKED: ATOM     12  O26 DVT A 531     -16.807 -15.235 -25.602 +0.00 +0.07    -0.750 OA
DOCKED: ATOM     13  O24 DVT A 531     -15.447 -14.542 -27.774 +0.01 +0.06    -0.750 OA
DOCKED: ATOM     14  V7  DVT A 531     -16.588 -12.875 -27.961 +0.01 -0.09    +1.500 Zn
DOCKED: ATOM     15  O11 DVT A 531     -17.667 -11.728 -28.801 +0.02 +0.03    -0.750 OA
DOCKED: ATOM     16  O25 DVT A 531     -16.308 -12.542 -26.417 +0.00 +0.07    -0.750 OA
DOCKED: ATOM     17  O21 DVT A 531     -15.092 -12.036 -28.634 +0.01 +0.07    -0.750 OA
DOCKED: ATOM     18  V6  DVT A 531     -14.748 -12.162 -30.467 +0.08 -0.07    +1.500 Zn
DOCKED: ATOM     19  O19 DVT A 531     -14.806 -13.097 -32.097 +0.05 -0.07    -0.750 OA
DOCKED: ATOM     20  O22 DVT A 531     -13.464 -11.202 -30.497 +0.02 +0.09    -0.750 OA
DOCKED: ATOM     21  O6  DVT A 531     -16.168 -11.061 -30.900 +0.04 -0.02    -0.750 OA
DOCKED: ATOM     22  V8  DVT A 531     -14.988 -15.082 -29.546 +0.05 -0.08    +1.500 Zn
DOCKED: ATOM     23  O20 DVT A 531     -13.836 -13.938 -29.942 +0.03 +0.08    -0.750 OA
DOCKED: ATOM     24  O23 DVT A 531     -14.165 -16.463 -29.081 +0.01 +0.09    -0.750 OA
DOCKED: ATOM     25  O16 DVT A 531     -16.453 -13.672 -30.053 +0.04 -0.05    -0.750 OA
DOCKED: ATOM     26  V5  DVT A 531     -17.836 -11.865 -30.672 +0.11 +0.16    +1.500 Zn
DOCKED: ATOM     27  O14 DVT A 531     -18.916 -10.744 -31.080 +0.06 -0.04    -0.750 OA
DOCKED: ATOM     28  O7  DVT A 531     -19.144 -13.367 -30.274 +0.05 -0.13    -0.750 OA
DOCKED: ATOM     29  V2  DVT A 531     -18.298 -14.772 -29.848 +0.11 +0.28    +1.500 Zn
DOCKED: ATOM     30  O1  DVT A 531     -19.476 -15.921 -29.508 +0.03 -0.17    -0.750 OA
DOCKED: ATOM     31  O17 DVT A 531     -15.407 -15.659 -31.348 +0.05 -0.05    -0.750 OA
DOCKED: ATOM     32  V4  DVT A 531     -16.278 -14.085 -32.220 +0.24 +0.62    +1.500 Zn
DOCKED: ATOM     33  O13 DVT A 531     -17.488 -12.735 -32.322 +0.01 -0.43    -0.750 OA
DOCKED: ATOM     34  O12 DVT A 531     -16.336 -14.570 -33.754 -0.41 -0.86    -0.750 OA
DOCKED: ATOM     35  O9  DVT A 531     -17.777 -15.233 -31.596 +0.00 -0.46    -0.750 OA
DOCKED: ATOM     36  V3  DVT A 531     -16.870 -17.008 -31.357 +0.16 +0.68    +1.500 Zn
DOCKED: ATOM     37  O3  DVT A 531     -18.352 -17.863 -30.752 -0.00 -0.39    -0.750 OA
DOCKED: ATOM     38  O10 DVT A 531     -16.948 -17.453 -32.915 -0.41 -0.85    -0.750 OA
DOCKED: ENDROOT
DOCKED: TORSDOF 0
DOCKED: TER
DOCKED: ENDMDL
________________________________________________________________________________


	BEGINNING GENETIC ALGORITHM DOCKING 24 of 50
Run: 24 Seed: 343803432 1169474358 [ Run 24 of 50 GA/GALS ]
Beginning LAMARCKIAN GENETIC ALGORITHM (LGA), with a maximum of 2500000 energy evaluations.

Final-Value: -0.683


	FINAL GENETIC ALGORITHM DOCKED STATE
	_______________________________________________


Detailed state:  trans -17.971 -18.402 -27.919 quatxyzw -0.573968 0.042663 -0.688419 0.441384 center 38.166 -0.098 117.777 ntor 0
State:	-17.971 -18.402 -27.919  -0.640  0.048 -0.767 127.616  

DOCKED: MODEL       24
DOCKED: USER    Run = 24
DOCKED: USER    DPF = atp_pocket.dpf
DOCKED: USER  
DOCKED: USER    Estimated Free Energy of Binding    =   -0.68 kcal/mol  [=(1)+(2)+(3)-(4)]
DOCKED: USER    Estimated Inhibition Constant, Ki   =  315.75 mM (millimolar)  [Temperature = 298.15 K]
DOCKED: USER    
DOCKED: USER    (1) Final Intermolecular Energy     =   -0.68 kcal/mol
DOCKED: USER        vdW + Hbond + desolv Energy     =   +0.23 kcal/mol
DOCKED: USER        Electrostatic Energy            =   -0.92 kcal/mol
DOCKED: USER    (2) Final Total Internal Energy     =   +0.00 kcal/mol
DOCKED: USER    (3) Torsional Free Energy           =   +0.00 kcal/mol
DOCKED: USER    (4) Unbound System's Energy  [=(2)] =   +0.00 kcal/mol
DOCKED: USER    
DOCKED: USER    
DOCKED: USER    NEWDPF move ../ligands/decavanadate.pdbqt
DOCKED: USER    NEWDPF about 38.166447 -0.097658 117.776763
DOCKED: USER    NEWDPF tran0 -17.971453 -18.402363 -27.919157
DOCKED: USER    NEWDPF quaternion0 -0.573968 0.042663 -0.688419 0.441384
DOCKED: USER    NEWDPF axisangle0 -0.639648 0.047545 -0.767196 127.615547
DOCKED: USER    NEWDPF quat0 -0.639648 0.047545 -0.767196 127.615547
DOCKED: USER  keepresnum = 1 
DOCKED: USER  
DOCKED: USER                              x       y       z     vdW  Elec       q    Type
DOCKED: USER                           _______ _______ _______ _____ _____    ______ ____
DOCKED: ROOT
DOCKED: ATOM      1  O28 DVT A 531     -21.524 -21.803 -27.621 +0.01 +0.03    -0.750 OA
DOCKED: ATOM      2  V10 DVT A 531     -20.684 -20.464 -27.659 +0.02 -0.04    +1.500 Zn
DOCKED: ATOM      3  O18 DVT A 531     -20.895 -19.696 -29.330 +0.04 -0.07    -0.750 OA
DOCKED: ATOM      4  O15 DVT A 531     -21.841 -19.132 -27.127 +0.01 +0.01    -0.750 OA
DOCKED: ATOM      5  V1  DVT A 531     -21.118 -17.449 -26.999 +0.04 -0.01    +1.500 Zn
DOCKED: ATOM      6  O5  DVT A 531     -22.354 -16.498 -26.543 +0.01 +0.02    -0.750 OA
DOCKED: ATOM      7  O27 DVT A 531     -19.996 -20.438 -25.903 +0.00 +0.05    -0.750 OA
DOCKED: ATOM      8  V9  DVT A 531     -18.942 -18.998 -25.469 +0.00 -0.11    +1.500 Zn
DOCKED: ATOM      9  O2  DVT A 531     -19.237 -18.615 -27.650 +0.01 -0.00    -0.750 OA
DOCKED: ATOM     10  O4  DVT A 531     -20.337 -17.867 -25.340 +0.00 +0.05    -0.750 OA
DOCKED: ATOM     11  O8  DVT A 531     -17.731 -17.452 -25.881 +0.00 +0.05    -0.750 OA
DOCKED: ATOM     12  O26 DVT A 531     -18.492 -19.404 -23.982 +0.00 +0.07    -0.750 OA
DOCKED: ATOM     13  O24 DVT A 531     -17.386 -19.947 -26.334 +0.00 +0.06    -0.750 OA
DOCKED: ATOM     14  V7  DVT A 531     -16.045 -18.451 -26.054 +0.00 -0.14    +1.500 Zn
DOCKED: ATOM     15  O11 DVT A 531     -15.161 -16.958 -26.474 +0.00 +0.07    -0.750 OA
DOCKED: ATOM     16  O25 DVT A 531     -15.724 -19.047 -24.599 +0.00 +0.08    -0.750 OA
DOCKED: ATOM     17  O21 DVT A 531     -14.834 -19.487 -26.979 +0.00 +0.08    -0.750 OA
DOCKED: ATOM     18  V6  DVT A 531     -14.787 -19.353 -28.843 +0.01 -0.17    +1.500 Zn
DOCKED: ATOM     19  O19 DVT A 531     -15.632 -19.078 -30.500 +0.03 +0.04    -0.750 OA
DOCKED: ATOM     20  O22 DVT A 531     -13.541 -20.332 -29.084 +0.00 +0.12    -0.750 OA
DOCKED: ATOM     21  O6  DVT A 531     -14.051 -17.658 -28.792 +0.01 +0.09    -0.750 OA
DOCKED: ATOM     22  V8  DVT A 531     -17.716 -20.031 -28.213 +0.02 -0.06    +1.500 Zn
DOCKED: ATOM     23  O20 DVT A 531     -16.307 -20.747 -28.754 +0.01 +0.06    -0.750 OA
DOCKED: ATOM     24  O23 DVT A 531     -18.871 -21.237 -28.115 +0.01 +0.04    -0.750 OA
DOCKED: ATOM     25  O16 DVT A 531     -16.688 -18.205 -28.189 +0.01 +0.03    -0.750 OA
DOCKED: ATOM     26  V5  DVT A 531     -15.250 -16.336 -28.249 +0.02 -0.11    +1.500 Zn
DOCKED: ATOM     27  O14 DVT A 531     -14.412 -14.963 -28.256 +0.01 +0.08    -0.750 OA
DOCKED: ATOM     28  O7  DVT A 531     -17.044 -15.554 -27.706 +0.01 +0.02    -0.750 OA
DOCKED: ATOM     29  V2  DVT A 531     -18.216 -16.777 -27.655 +0.03 -0.00    +1.500 Zn
DOCKED: ATOM     30  O1  DVT A 531     -19.634 -16.022 -27.163 +0.01 +0.01    -0.750 OA
DOCKED: ATOM     31  O17 DVT A 531     -18.295 -19.291 -29.908 +0.03 -0.09    -0.750 OA
DOCKED: ATOM     32  V4  DVT A 531     -16.945 -17.889 -30.363 +0.10 +0.26    +1.500 Zn
DOCKED: ATOM     33  O13 DVT A 531     -15.931 -16.422 -30.018 +0.03 -0.03    -0.750 OA
DOCKED: ATOM     34  O12 DVT A 531     -17.359 -17.538 -31.879 -0.34 -0.69    -0.750 OA
DOCKED: ATOM     35  O9  DVT A 531     -18.454 -16.907 -29.518 +0.02 -0.16    -0.750 OA
DOCKED: ATOM     36  V3  DVT A 531     -19.961 -18.222 -29.702 +0.14 +0.39    +1.500 Zn
DOCKED: ATOM     37  O3  DVT A 531     -21.181 -17.185 -28.847 +0.04 -0.10    -0.750 OA
DOCKED: ATOM     38  O10 DVT A 531     -20.340 -17.837 -31.231 -0.11 -0.85    -0.750 OA
DOCKED: ENDROOT
DOCKED: TORSDOF 0
DOCKED: TER
DOCKED: ENDMDL
________________________________________________________________________________


	BEGINNING GENETIC ALGORITHM DOCKING 25 of 50
Run: 25 Seed: 1201456760 291335003 [ Run 25 of 50 GA/GALS ]
Beginning LAMARCKIAN GENETIC ALGORITHM (LGA), with a maximum of 2500000 energy evaluations.

Final-Value: -0.855


	FINAL GENETIC ALGORITHM DOCKED STATE
	_______________________________________________


Detailed state:  trans -17.280 -13.292 -29.015 quatxyzw 0.582425 -0.151788 0.161582 0.782070 center 38.166 -0.098 117.777 ntor 0
State:	-17.280 -13.292 -29.015   0.935 -0.244  0.259 77.099  

DOCKED: MODEL       25
DOCKED: USER    Run = 25
DOCKED: USER    DPF = atp_pocket.dpf
DOCKED: USER  
DOCKED: USER    Estimated Free Energy of Binding    =   -0.86 kcal/mol  [=(1)+(2)+(3)-(4)]
DOCKED: USER    Estimated Inhibition Constant, Ki   =  236.13 mM (millimolar)  [Temperature = 298.15 K]
DOCKED: USER    
DOCKED: USER    (1) Final Intermolecular Energy     =   -0.86 kcal/mol
DOCKED: USER        vdW + Hbond + desolv Energy     =   +0.52 kcal/mol
DOCKED: USER        Electrostatic Energy            =   -1.38 kcal/mol
DOCKED: USER    (2) Final Total Internal Energy     =   +0.00 kcal/mol
DOCKED: USER    (3) Torsional Free Energy           =   +0.00 kcal/mol
DOCKED: USER    (4) Unbound System's Energy  [=(2)] =   +0.00 kcal/mol
DOCKED: USER    
DOCKED: USER    
DOCKED: USER    NEWDPF move ../ligands/decavanadate.pdbqt
DOCKED: USER    NEWDPF about 38.166447 -0.097658 117.776763
DOCKED: USER    NEWDPF tran0 -17.279792 -13.291961 -29.014766
DOCKED: USER    NEWDPF quaternion0 0.582425 -0.151788 0.161582 0.782070
DOCKED: USER    NEWDPF axisangle0 0.934585 -0.243566 0.259281 77.099065
DOCKED: USER    NEWDPF quat0 0.934585 -0.243566 0.259281 77.099065
DOCKED: USER  keepresnum = 1 
DOCKED: USER  
DOCKED: USER                              x       y       z     vdW  Elec       q    Type
DOCKED: USER                           _______ _______ _______ _____ _____    ______ ____
DOCKED: ROOT
DOCKED: ATOM      1  O28 DVT A 531     -18.859 -11.849 -33.453 -0.44 -0.77    -0.750 OA
DOCKED: ATOM      2  V10 DVT A 531     -18.339 -12.664 -32.202 +0.28 +0.77    +1.500 Zn
DOCKED: ATOM      3  O18 DVT A 531     -19.783 -13.537 -31.440 +0.04 -0.27    -0.750 OA
DOCKED: ATOM      4  O15 DVT A 531     -17.922 -14.342 -32.838 +0.03 -0.71    -0.750 OA
DOCKED: ATOM      5  V1  DVT A 531     -17.211 -15.509 -31.610 +0.18 +0.82    +1.500 Zn
DOCKED: ATOM      6  O5  DVT A 531     -16.972 -16.888 -32.435 -0.44 -0.78    -0.750 OA
DOCKED: ATOM      7  O27 DVT A 531     -16.494 -12.279 -32.280 +0.04 -0.30    -0.750 OA
DOCKED: ATOM      8  V9  DVT A 531     -15.450 -13.062 -30.989 +0.13 +0.09    +1.500 Zn
DOCKED: ATOM      9  O2  DVT A 531     -17.475 -13.658 -30.258 +0.05 -0.11    -0.750 OA
DOCKED: ATOM     10  O4  DVT A 531     -15.523 -14.692 -31.751 +0.05 -0.11    -0.750 OA
DOCKED: ATOM     11  O8  DVT A 531     -15.114 -13.916 -29.205 +0.02 +0.04    -0.750 OA
DOCKED: ATOM     12  O26 DVT A 531     -14.022 -12.414 -31.337 +0.04 +0.04    -0.750 OA
DOCKED: ATOM     13  O24 DVT A 531     -15.967 -11.564 -29.741 +0.03 +0.03    -0.750 OA
DOCKED: ATOM     14  V7  DVT A 531     -14.961 -12.275 -28.129 +0.01 -0.14    +1.500 Zn
DOCKED: ATOM     15  O11 DVT A 531     -14.748 -13.230 -26.636 +0.00 +0.08    -0.750 OA
DOCKED: ATOM     16  O25 DVT A 531     -13.645 -11.519 -28.649 +0.00 +0.09    -0.750 OA
DOCKED: ATOM     17  O21 DVT A 531     -15.661 -10.859 -27.182 +0.00 +0.08    -0.750 OA
DOCKED: ATOM     18  V6  DVT A 531     -17.339 -11.061 -26.385 +0.00 -0.16    +1.500 Zn
DOCKED: ATOM     19  O19 DVT A 531     -19.076 -11.780 -26.355 +0.00 +0.07    -0.750 OA
DOCKED: ATOM     20  O22 DVT A 531     -17.383  -9.640 -25.644 +0.00 +0.09    -0.750 OA
DOCKED: ATOM     21  O6  DVT A 531     -16.693 -12.236 -25.112 +0.00 +0.08    -0.750 OA
DOCKED: ATOM     22  V8  DVT A 531     -17.824 -11.742 -29.340 +0.05 -0.01    +1.500 Zn
DOCKED: ATOM     23  O20 DVT A 531     -18.037 -10.499 -28.245 +0.00 +0.06    -0.750 OA
DOCKED: ATOM     24  O23 DVT A 531     -18.359 -11.184 -30.824 +0.05 -0.06    -0.750 OA
DOCKED: ATOM     25  O16 DVT A 531     -17.083 -12.904 -27.762 +0.01 +0.04    -0.750 OA
DOCKED: ATOM     26  V5  DVT A 531     -16.281 -13.924 -25.792 +0.00 -0.14    +1.500 Zn
DOCKED: ATOM     27  O14 DVT A 531     -15.726 -14.770 -24.541 +0.00 +0.08    -0.750 OA
DOCKED: ATOM     28  O7  DVT A 531     -16.173 -15.399 -27.184 +0.00 +0.05    -0.750 OA
DOCKED: ATOM     29  V2  DVT A 531     -16.760 -14.835 -28.670 +0.04 +0.00    +1.500 Zn
DOCKED: ATOM     30  O1  DVT A 531     -16.586 -16.120 -29.739 +0.03 -0.06    -0.750 OA
DOCKED: ATOM     31  O17 DVT A 531     -19.412 -12.757 -28.888 +0.03 -0.01    -0.750 OA
DOCKED: ATOM     32  V4  DVT A 531     -19.104 -13.423 -27.029 +0.01 -0.08    +1.500 Zn
DOCKED: ATOM     33  O13 DVT A 531     -18.149 -14.253 -25.727 +0.00 +0.06    -0.750 OA
DOCKED: ATOM     34  O12 DVT A 531     -20.559 -14.007 -26.662 +0.01 +0.04    -0.750 OA
DOCKED: ATOM     35  O9  DVT A 531     -18.584 -14.931 -28.217 +0.02 -0.02    -0.750 OA
DOCKED: ATOM     36  V3  DVT A 531     -19.513 -14.449 -29.931 +0.14 +0.31    +1.500 Zn
DOCKED: ATOM     37  O3  DVT A 531     -18.881 -15.876 -30.860 +0.04 -0.44    -0.750 OA
DOCKED: ATOM     38  O10 DVT A 531     -20.962 -15.049 -29.516 +0.04 -0.14    -0.750 OA
DOCKED: ENDROOT
DOCKED: TORSDOF 0
DOCKED: TER
DOCKED: ENDMDL
________________________________________________________________________________


	BEGINNING GENETIC ALGORITHM DOCKING 26 of 50
Run: 26 Seed: 1008498325 1306711476 [ Run 26 of 50 GA/GALS ]
Beginning LAMARCKIAN GENETIC ALGORITHM (LGA), with a maximum of 2500000 energy evaluations.

Final-Value: -0.852


	FINAL GENETIC ALGORITHM DOCKED STATE
	_______________________________________________


Detailed state:  trans -18.122 -14.662 -29.792 quatxyzw -0.474887 0.358032 -0.433295 0.677164 center 38.166 -0.098 117.777 ntor 0
State:	-18.122 -14.662 -29.792  -0.645  0.487 -0.589 94.755  

DOCKED: MODEL       26
DOCKED: USER    Run = 26
DOCKED: USER    DPF = atp_pocket.dpf
DOCKED: USER  
DOCKED: USER    Estimated Free Energy of Binding    =   -0.85 kcal/mol  [=(1)+(2)+(3)-(4)]
DOCKED: USER    Estimated Inhibition Constant, Ki   =  237.48 mM (millimolar)  [Temperature = 298.15 K]
DOCKED: USER    
DOCKED: USER    (1) Final Intermolecular Energy     =   -0.85 kcal/mol
DOCKED: USER        vdW + Hbond + desolv Energy     =   +0.89 kcal/mol
DOCKED: USER        Electrostatic Energy            =   -1.75 kcal/mol
DOCKED: USER    (2) Final Total Internal Energy     =   +0.00 kcal/mol
DOCKED: USER    (3) Torsional Free Energy           =   +0.00 kcal/mol
DOCKED: USER    (4) Unbound System's Energy  [=(2)] =   +0.00 kcal/mol
DOCKED: USER    
DOCKED: USER    
DOCKED: USER    NEWDPF move ../ligands/decavanadate.pdbqt
DOCKED: USER    NEWDPF about 38.166447 -0.097658 117.776763
DOCKED: USER    NEWDPF tran0 -18.121562 -14.661994 -29.792279
DOCKED: USER    NEWDPF quaternion0 -0.474887 0.358032 -0.433295 0.677164
DOCKED: USER    NEWDPF axisangle0 -0.645374 0.486567 -0.588851 94.755176
DOCKED: USER    NEWDPF quat0 -0.645374 0.486567 -0.588851 94.755176
DOCKED: USER  keepresnum = 1 
DOCKED: USER  
DOCKED: USER                              x       y       z     vdW  Elec       q    Type
DOCKED: USER                           _______ _______ _______ _____ _____    ______ ____
DOCKED: ROOT
DOCKED: ATOM      1  O28 DVT A 531     -22.944 -13.706 -30.111 +0.03 -0.08    -0.750 OA
DOCKED: ATOM      2  V10 DVT A 531     -21.376 -13.628 -29.932 +0.19 +0.18    +1.500 Zn
DOCKED: ATOM      3  O18 DVT A 531     -20.648 -12.950 -31.493 +0.07 -0.19    -0.750 OA
DOCKED: ATOM      4  O15 DVT A 531     -21.030 -11.940 -29.280 +0.03 +0.01    -0.750 OA
DOCKED: ATOM      5  V1  DVT A 531     -19.272 -11.575 -28.896 +0.04 -0.05    +1.500 Zn
DOCKED: ATOM      6  O5  DVT A 531     -19.270 -10.036 -28.374 +0.00 +0.07    -0.750 OA
DOCKED: ATOM      7  O27 DVT A 531     -21.199 -14.247 -28.159 +0.03 -0.01    -0.750 OA
DOCKED: ATOM      8  V9  DVT A 531     -19.490 -14.305 -27.490 +0.03 -0.02    +1.500 Zn
DOCKED: ATOM      9  O2  DVT A 531     -19.053 -13.758 -29.611 +0.04 -0.09    -0.750 OA
DOCKED: ATOM     10  O4  DVT A 531     -19.388 -12.520 -27.274 +0.01 +0.04    -0.750 OA
DOCKED: ATOM     11  O8  DVT A 531     -17.490 -14.396 -27.636 +0.01 +0.02    -0.750 OA
DOCKED: ATOM     12  O26 DVT A 531     -19.762 -14.965 -26.052 +0.00 +0.04    -0.750 OA
DOCKED: ATOM     13  O24 DVT A 531     -19.252 -16.087 -28.403 +0.03 -0.06    -0.750 OA
DOCKED: ATOM     14  V7  DVT A 531     -17.312 -16.343 -27.865 +0.03 -0.02    +1.500 Zn
DOCKED: ATOM     15  O11 DVT A 531     -15.542 -16.197 -28.042 +0.01 +0.05    -0.750 OA
DOCKED: ATOM     16  O25 DVT A 531     -17.808 -17.004 -26.490 +0.00 +0.04    -0.750 OA
DOCKED: ATOM     17  O21 DVT A 531     -17.334 -17.890 -28.865 +0.02 -0.03    -0.750 OA
DOCKED: ATOM     18  V6  DVT A 531     -16.947 -17.778 -30.690 +0.12 +0.36    +1.500 Zn
DOCKED: ATOM     19  O19 DVT A 531     -16.983 -16.862 -32.332 -0.44 -0.74    -0.750 OA
DOCKED: ATOM     20  O22 DVT A 531     -16.995 -19.349 -31.003 +0.02 -0.08    -0.750 OA
DOCKED: ATOM     21  O6  DVT A 531     -15.161 -17.415 -30.380 +0.03 +0.03    -0.750 OA
DOCKED: ATOM     22  V8  DVT A 531     -19.254 -15.791 -30.289 +0.16 +0.61    +1.500 Zn
DOCKED: ATOM     23  O20 DVT A 531     -18.956 -17.334 -30.856 +0.08 -0.55    -0.750 OA
DOCKED: ATOM     24  O23 DVT A 531     -20.903 -15.537 -30.405 +0.02 -0.30    -0.750 OA
DOCKED: ATOM     25  O16 DVT A 531     -17.192 -15.590 -29.975 +0.03 -0.12    -0.750 OA
DOCKED: ATOM     26  V5  DVT A 531     -14.850 -15.697 -29.720 +0.06 -0.09    +1.500 Zn
DOCKED: ATOM     27  O14 DVT A 531     -13.258 -15.599 -29.506 +0.01 +0.12    -0.750 OA
DOCKED: ATOM     28  O7  DVT A 531     -15.315 -13.802 -29.160 +0.02 +0.04    -0.750 OA
DOCKED: ATOM     29  V2  DVT A 531     -16.981 -13.543 -29.325 +0.07 +0.04    +1.500 Zn
DOCKED: ATOM     30  O1  DVT A 531     -17.247 -11.969 -28.801 +0.02 +0.03    -0.750 OA
DOCKED: ATOM     31  O17 DVT A 531     -18.757 -14.826 -31.894 +0.08 -0.54    -0.750 OA
DOCKED: ATOM     32  V4  DVT A 531     -16.789 -15.112 -32.097 +0.24 +0.81    +1.500 Zn
DOCKED: ATOM     33  O13 DVT A 531     -15.069 -15.118 -31.514 +0.06 -0.02    -0.750 OA
DOCKED: ATOM     34  O12 DVT A 531     -16.537 -14.513 -33.569 -0.33 -0.84    -0.750 OA
DOCKED: ATOM     35  O9  DVT A 531     -16.971 -13.348 -31.197 +0.05 -0.18    -0.750 OA
DOCKED: ATOM     36  V3  DVT A 531     -18.871 -12.858 -31.623 +0.26 +0.52    +1.500 Zn
DOCKED: ATOM     37  O3  DVT A 531     -18.844 -11.299 -30.693 +0.05 -0.05    -0.750 OA
DOCKED: ATOM     38  O10 DVT A 531     -18.569 -12.266 -33.103 -0.28 -0.70    -0.750 OA
DOCKED: ENDROOT
DOCKED: TORSDOF 0
DOCKED: TER
DOCKED: ENDMDL
________________________________________________________________________________


	BEGINNING GENETIC ALGORITHM DOCKING 27 of 50
Run: 27 Seed: 1853932161 367483402 [ Run 27 of 50 GA/GALS ]
Beginning LAMARCKIAN GENETIC ALGORITHM (LGA), with a maximum of 2500000 energy evaluations.

Final-Value: -0.688


	FINAL GENETIC ALGORITHM DOCKED STATE
	_______________________________________________


Detailed state:  trans -18.655 -17.978 -27.657 quatxyzw -0.521208 0.019745 -0.721651 0.455162 center 38.166 -0.098 117.777 ntor 0
State:	-18.655 -17.978 -27.657  -0.585  0.022 -0.810 125.849  

DOCKED: MODEL       27
DOCKED: USER    Run = 27
DOCKED: USER    DPF = atp_pocket.dpf
DOCKED: USER  
DOCKED: USER    Estimated Free Energy of Binding    =   -0.69 kcal/mol  [=(1)+(2)+(3)-(4)]
DOCKED: USER    Estimated Inhibition Constant, Ki   =  313.28 mM (millimolar)  [Temperature = 298.15 K]
DOCKED: USER    
DOCKED: USER    (1) Final Intermolecular Energy     =   -0.69 kcal/mol
DOCKED: USER        vdW + Hbond + desolv Energy     =   +0.24 kcal/mol
DOCKED: USER        Electrostatic Energy            =   -0.93 kcal/mol
DOCKED: USER    (2) Final Total Internal Energy     =   +0.00 kcal/mol
DOCKED: USER    (3) Torsional Free Energy           =   +0.00 kcal/mol
DOCKED: USER    (4) Unbound System's Energy  [=(2)] =   +0.00 kcal/mol
DOCKED: USER    
DOCKED: USER    
DOCKED: USER    NEWDPF move ../ligands/decavanadate.pdbqt
DOCKED: USER    NEWDPF about 38.166447 -0.097658 117.776763
DOCKED: USER    NEWDPF tran0 -18.655374 -17.977868 -27.657225
DOCKED: USER    NEWDPF quaternion0 -0.521208 0.019745 -0.721651 0.455162
DOCKED: USER    NEWDPF axisangle0 -0.585358 0.022175 -0.810472 125.849324
DOCKED: USER    NEWDPF quat0 -0.585358 0.022175 -0.810472 125.849324
DOCKED: USER  keepresnum = 1 
DOCKED: USER  
DOCKED: USER                              x       y       z     vdW  Elec       q    Type
DOCKED: USER                           _______ _______ _______ _____ _____    ______ ____
DOCKED: ROOT
DOCKED: ATOM      1  O28 DVT A 531     -22.125 -21.461 -27.340 +0.01 +0.03    -0.750 OA
DOCKED: ATOM      2  V10 DVT A 531     -21.322 -20.103 -27.435 +0.02 -0.03    +1.500 Zn
DOCKED: ATOM      3  O18 DVT A 531     -21.402 -19.505 -29.185 +0.05 -0.06    -0.750 OA
DOCKED: ATOM      4  O15 DVT A 531     -22.559 -18.770 -27.139 +0.02 +0.01    -0.750 OA
DOCKED: ATOM      5  V1  DVT A 531     -21.898 -17.056 -27.115 +0.05 -0.01    +1.500 Zn
DOCKED: ATOM      6  O5  DVT A 531     -23.196 -16.112 -26.864 +0.02 +0.02    -0.750 OA
DOCKED: ATOM      7  O27 DVT A 531     -20.797 -19.885 -25.636 +0.00 +0.05    -0.750 OA
DOCKED: ATOM      8  V9  DVT A 531     -19.828 -18.373 -25.255 +0.00 -0.10    +1.500 Zn
DOCKED: ATOM      9  O2  DVT A 531     -19.933 -18.210 -27.480 +0.01 -0.00    -0.750 OA
DOCKED: ATOM     10  O4  DVT A 531     -21.259 -17.286 -25.360 +0.00 +0.05    -0.750 OA
DOCKED: ATOM     11  O8  DVT A 531     -18.628 -16.830 -25.708 +0.00 +0.05    -0.750 OA
DOCKED: ATOM     12  O26 DVT A 531     -19.503 -18.619 -23.702 +0.00 +0.07    -0.750 OA
DOCKED: ATOM     13  O24 DVT A 531     -18.174 -19.342 -25.884 +0.00 +0.05    -0.750 OA
DOCKED: ATOM     14  V7  DVT A 531     -16.905 -17.779 -25.635 +0.00 -0.13    +1.500 Zn
DOCKED: ATOM     15  O11 DVT A 531     -16.029 -16.302 -26.120 +0.00 +0.07    -0.750 OA
DOCKED: ATOM     16  O25 DVT A 531     -16.702 -18.222 -24.106 +0.00 +0.07    -0.750 OA
DOCKED: ATOM     17  O21 DVT A 531     -15.588 -18.853 -26.344 +0.00 +0.07    -0.750 OA
DOCKED: ATOM     18  V6  DVT A 531     -15.375 -18.895 -28.201 +0.01 -0.13    +1.500 Zn
DOCKED: ATOM     19  O19 DVT A 531     -16.074 -18.810 -29.944 +0.02 +0.01    -0.750 OA
DOCKED: ATOM     20  O22 DVT A 531     -14.086 -19.847 -28.235 +0.00 +0.10    -0.750 OA
DOCKED: ATOM     21  O6  DVT A 531     -14.694 -17.177 -28.252 +0.01 +0.07    -0.750 OA
DOCKED: ATOM     22  V8  DVT A 531     -18.329 -19.617 -27.766 +0.02 -0.04    +1.500 Zn
DOCKED: ATOM     23  O20 DVT A 531     -16.857 -20.329 -28.109 +0.01 +0.05    -0.750 OA
DOCKED: ATOM     24  O23 DVT A 531     -19.455 -20.849 -27.653 +0.01 +0.03    -0.750 OA
DOCKED: ATOM     25  O16 DVT A 531     -17.359 -17.760 -27.831 +0.01 +0.02    -0.750 OA
DOCKED: ATOM     26  V5  DVT A 531     -15.974 -15.855 -27.948 +0.02 -0.08    +1.500 Zn
DOCKED: ATOM     27  O14 DVT A 531     -15.177 -14.458 -28.017 +0.01 +0.06    -0.750 OA
DOCKED: ATOM     28  O7  DVT A 531     -17.831 -15.091 -27.644 +0.02 +0.01    -0.750 OA
DOCKED: ATOM     29  V2  DVT A 531     -18.968 -16.345 -27.576 +0.03 +0.01    +1.500 Zn
DOCKED: ATOM     30  O1  DVT A 531     -20.445 -15.599 -27.286 +0.02 +0.00    -0.750 OA
DOCKED: ATOM     31  O17 DVT A 531     -18.772 -19.063 -29.570 +0.03 -0.10    -0.750 OA
DOCKED: ATOM     32  V4  DVT A 531     -17.426 -17.662 -30.040 +0.10 +0.29    +1.500 Zn
DOCKED: ATOM     33  O13 DVT A 531     -16.489 -16.133 -29.753 +0.03 -0.06    -0.750 OA
DOCKED: ATOM     34  O12 DVT A 531     -17.710 -17.472 -31.613 -0.15 -0.71    -0.750 OA
DOCKED: ATOM     35  O9  DVT A 531     -19.032 -16.660 -29.431 +0.03 -0.17    -0.750 OA
DOCKED: ATOM     36  V3  DVT A 531     -20.479 -18.040 -29.616 +0.16 +0.38    +1.500 Zn
DOCKED: ATOM     37  O3  DVT A 531     -21.800 -16.972 -28.977 +0.04 -0.10    -0.750 OA
DOCKED: ATOM     38  O10 DVT A 531     -20.728 -17.817 -31.204 -0.35 -0.78    -0.750 OA
DOCKED: ENDROOT
DOCKED: TORSDOF 0
DOCKED: TER
DOCKED: ENDMDL
________________________________________________________________________________


	BEGINNING GENETIC ALGORITHM DOCKING 28 of 50
Run: 28 Seed: 975672259 1340824768 [ Run 28 of 50 GA/GALS ]
Beginning LAMARCKIAN GENETIC ALGORITHM (LGA), with a maximum of 2500000 energy evaluations.

Final-Value: -0.757


	FINAL GENETIC ALGORITHM DOCKED STATE
	_______________________________________________


Detailed state:  trans -18.130 -15.512 -29.345 quatxyzw 0.776415 -0.604230 0.124208 -0.129067 center 38.166 -0.098 117.777 ntor 0
State:	-18.130 -15.512 -29.345   0.783 -0.609  0.125 -165.169  

DOCKED: MODEL       28
DOCKED: USER    Run = 28
DOCKED: USER    DPF = atp_pocket.dpf
DOCKED: USER  
DOCKED: USER    Estimated Free Energy of Binding    =   -0.76 kcal/mol  [=(1)+(2)+(3)-(4)]
DOCKED: USER    Estimated Inhibition Constant, Ki   =  278.75 mM (millimolar)  [Temperature = 298.15 K]
DOCKED: USER    
DOCKED: USER    (1) Final Intermolecular Energy     =   -0.76 kcal/mol
DOCKED: USER        vdW + Hbond + desolv Energy     =   +0.74 kcal/mol
DOCKED: USER        Electrostatic Energy            =   -1.50 kcal/mol
DOCKED: USER    (2) Final Total Internal Energy     =   +0.00 kcal/mol
DOCKED: USER    (3) Torsional Free Energy           =   +0.00 kcal/mol
DOCKED: USER    (4) Unbound System's Energy  [=(2)] =   +0.00 kcal/mol
DOCKED: USER    
DOCKED: USER    
DOCKED: USER    NEWDPF move ../ligands/decavanadate.pdbqt
DOCKED: USER    NEWDPF about 38.166447 -0.097658 117.776763
DOCKED: USER    NEWDPF tran0 -18.129777 -15.511988 -29.345439
DOCKED: USER    NEWDPF quaternion0 0.776415 -0.604230 0.124208 -0.129067
DOCKED: USER    NEWDPF axisangle0 0.782964 -0.609327 0.125256 -165.168650
DOCKED: USER    NEWDPF quat0 0.782964 -0.609327 0.125256 -165.168650
DOCKED: USER  keepresnum = 1 
DOCKED: USER  
DOCKED: USER                              x       y       z     vdW  Elec       q    Type
DOCKED: USER                           _______ _______ _______ _____ _____    ______ ____
DOCKED: ROOT
DOCKED: ATOM      1  O28 DVT A 531     -22.985 -14.701 -29.145 +0.03 -0.06    -0.750 OA
DOCKED: ATOM      2  V10 DVT A 531     -21.469 -15.012 -28.823 +0.12 +0.13    +1.500 Zn
DOCKED: ATOM      3  O18 DVT A 531     -20.698 -13.479 -28.130 +0.02 +0.00    -0.750 OA
DOCKED: ATOM      4  O15 DVT A 531     -21.437 -15.574 -27.068 +0.02 +0.01    -0.750 OA
DOCKED: ATOM      5  V1  DVT A 531     -19.796 -16.086 -26.422 +0.01 -0.06    +1.500 Zn
DOCKED: ATOM      6  O5  DVT A 531     -20.068 -16.498 -24.874 +0.00 +0.06    -0.750 OA
DOCKED: ATOM      7  O27 DVT A 531     -21.380 -16.833 -29.308 +0.04 -0.15    -0.750 OA
DOCKED: ATOM      8  V9  DVT A 531     -19.754 -17.654 -29.070 +0.10 +0.25    +1.500 Zn
DOCKED: ATOM      9  O2  DVT A 531     -19.196 -15.546 -28.583 +0.03 -0.06    -0.750 OA
DOCKED: ATOM     10  O4  DVT A 531     -19.933 -17.753 -27.281 +0.01 +0.00    -0.750 OA
DOCKED: ATOM     11  O8  DVT A 531     -17.758 -17.692 -28.868 +0.02 -0.05    -0.750 OA
DOCKED: ATOM     12  O26 DVT A 531     -20.067 -19.104 -29.683 +0.03 -0.13    -0.750 OA
DOCKED: ATOM     13  O24 DVT A 531     -19.173 -16.891 -30.845 +0.12 -0.57    -0.750 OA
DOCKED: ATOM     14  V7  DVT A 531     -17.279 -17.615 -30.776 +0.12 +0.51    +1.500 Zn
DOCKED: ATOM     15  O11 DVT A 531     -15.540 -17.586 -30.375 +0.03 +0.00    -0.750 OA
DOCKED: ATOM     16  O25 DVT A 531     -17.806 -18.984 -31.426 -0.03 -0.28    -0.750 OA
DOCKED: ATOM     17  O21 DVT A 531     -16.979 -16.728 -32.362 -0.42 -0.75    -0.750 OA
DOCKED: ATOM     18  V6  DVT A 531     -16.435 -14.941 -32.295 +0.26 +0.72    +1.500 Zn
DOCKED: ATOM     19  O19 DVT A 531     -16.442 -13.243 -31.487 +0.05 -0.18    -0.750 OA
DOCKED: ATOM     20  O22 DVT A 531     -16.224 -14.735 -33.870 -0.52 -0.81    -0.750 OA
DOCKED: ATOM     21  O6  DVT A 531     -14.759 -15.382 -31.650 +0.06 +0.03    -0.750 OA
DOCKED: ATOM     22  V8  DVT A 531     -19.033 -14.997 -30.658 +0.18 +0.59    +1.500 Zn
DOCKED: ATOM     23  O20 DVT A 531     -18.461 -14.566 -32.167 +0.05 -0.56    -0.750 OA
DOCKED: ATOM     24  O23 DVT A 531     -20.682 -14.717 -30.662 +0.03 -0.27    -0.750 OA
DOCKED: ATOM     25  O16 DVT A 531     -17.062 -15.478 -30.132 +0.03 -0.13    -0.750 OA
DOCKED: ATOM     26  V5  DVT A 531     -14.765 -15.946 -29.871 +0.06 -0.10    +1.500 Zn
DOCKED: ATOM     27  O14 DVT A 531     -13.233 -16.293 -29.523 +0.01 +0.12    -0.750 OA
DOCKED: ATOM     28  O7  DVT A 531     -15.553 -16.330 -28.039 +0.01 +0.05    -0.750 OA
DOCKED: ATOM     29  V2  DVT A 531     -17.215 -15.999 -28.044 +0.03 -0.01    +1.500 Zn
DOCKED: ATOM     30  O1  DVT A 531     -17.755 -16.388 -26.500 +0.00 +0.04    -0.750 OA
DOCKED: ATOM     31  O17 DVT A 531     -18.526 -13.379 -29.720 +0.04 -0.07    -0.750 OA
DOCKED: ATOM     32  V4  DVT A 531     -16.527 -13.372 -29.718 +0.08 +0.05    +1.500 Zn
DOCKED: ATOM     33  O13 DVT A 531     -14.890 -14.104 -29.432 +0.02 +0.05    -0.750 OA
DOCKED: ATOM     34  O12 DVT A 531     -16.221 -11.889 -29.170 +0.02 +0.03    -0.750 OA
DOCKED: ATOM     35  O9  DVT A 531     -17.049 -14.127 -27.954 +0.02 +0.02    -0.750 OA
DOCKED: ATOM     36  V3  DVT A 531     -18.949 -13.501 -27.779 +0.03 -0.03    +1.500 Zn
DOCKED: ATOM     37  O3  DVT A 531     -19.239 -14.319 -26.185 +0.00 +0.05    -0.750 OA
DOCKED: ATOM     38  O10 DVT A 531     -18.593 -12.016 -27.233 +0.00 +0.05    -0.750 OA
DOCKED: ENDROOT
DOCKED: TORSDOF 0
DOCKED: TER
DOCKED: ENDMDL
________________________________________________________________________________


	BEGINNING GENETIC ALGORITHM DOCKING 29 of 50
Run: 29 Seed: 1687288395 407842618 [ Run 29 of 50 GA/GALS ]
Beginning LAMARCKIAN GENETIC ALGORITHM (LGA), with a maximum of 2500000 energy evaluations.

Final-Value: -0.686


	FINAL GENETIC ALGORITHM DOCKED STATE
	_______________________________________________


Detailed state:  trans -18.763 -18.697 -27.753 quatxyzw -0.547643 0.098643 -0.692434 0.459229 center 38.166 -0.098 117.777 ntor 0
State:	-18.763 -18.697 -27.753  -0.616  0.111 -0.779 125.325  

DOCKED: MODEL       29
DOCKED: USER    Run = 29
DOCKED: USER    DPF = atp_pocket.dpf
DOCKED: USER  
DOCKED: USER    Estimated Free Energy of Binding    =   -0.69 kcal/mol  [=(1)+(2)+(3)-(4)]
DOCKED: USER    Estimated Inhibition Constant, Ki   =  314.17 mM (millimolar)  [Temperature = 298.15 K]
DOCKED: USER    
DOCKED: USER    (1) Final Intermolecular Energy     =   -0.69 kcal/mol
DOCKED: USER        vdW + Hbond + desolv Energy     =   +0.18 kcal/mol
DOCKED: USER        Electrostatic Energy            =   -0.86 kcal/mol
DOCKED: USER    (2) Final Total Internal Energy     =   +0.00 kcal/mol
DOCKED: USER    (3) Torsional Free Energy           =   +0.00 kcal/mol
DOCKED: USER    (4) Unbound System's Energy  [=(2)] =   +0.00 kcal/mol
DOCKED: USER    
DOCKED: USER    
DOCKED: USER    NEWDPF move ../ligands/decavanadate.pdbqt
DOCKED: USER    NEWDPF about 38.166447 -0.097658 117.776763
DOCKED: USER    NEWDPF tran0 -18.763067 -18.697306 -27.752594
DOCKED: USER    NEWDPF quaternion0 -0.547643 0.098643 -0.692434 0.459229
DOCKED: USER    NEWDPF axisangle0 -0.616495 0.111044 -0.779489 125.325250
DOCKED: USER    NEWDPF quat0 -0.616495 0.111044 -0.779489 125.325250
DOCKED: USER  keepresnum = 1 
DOCKED: USER  
DOCKED: USER                              x       y       z     vdW  Elec       q    Type
DOCKED: USER                           _______ _______ _______ _____ _____    ______ ____
DOCKED: ROOT
DOCKED: ATOM      1  O28 DVT A 531     -22.607 -21.776 -27.891 +0.01 +0.03    -0.750 OA
DOCKED: ATOM      2  V10 DVT A 531     -21.655 -20.517 -27.806 +0.03 -0.03    +1.500 Zn
DOCKED: ATOM      3  O18 DVT A 531     -21.648 -19.685 -29.459 +0.05 -0.07    -0.750 OA
DOCKED: ATOM      4  O15 DVT A 531     -22.736 -19.103 -27.328 +0.02 +0.01    -0.750 OA
DOCKED: ATOM      5  V1  DVT A 531     -21.886 -17.495 -27.076 +0.04 -0.01    +1.500 Zn
DOCKED: ATOM      6  O5  DVT A 531     -23.072 -16.452 -26.695 +0.01 +0.02    -0.750 OA
DOCKED: ATOM      7  O27 DVT A 531     -21.128 -20.603 -25.997 +0.00 +0.05    -0.750 OA
DOCKED: ATOM      8  V9  DVT A 531     -19.998 -19.276 -25.420 +0.00 -0.10    +1.500 Zn
DOCKED: ATOM      9  O2  DVT A 531     -20.061 -18.805 -27.603 +0.02 -0.00    -0.750 OA
DOCKED: ATOM     10  O4  DVT A 531     -21.296 -18.029 -25.372 +0.00 +0.05    -0.750 OA
DOCKED: ATOM     11  O8  DVT A 531     -18.627 -17.831 -25.667 +0.00 +0.05    -0.750 OA
DOCKED: ATOM     12  O26 DVT A 531     -19.720 -19.763 -23.916 +0.00 +0.06    -0.750 OA
DOCKED: ATOM     13  O24 DVT A 531     -18.458 -20.333 -26.181 +0.00 +0.05    -0.750 OA
DOCKED: ATOM     14  V7  DVT A 531     -17.023 -18.971 -25.730 +0.00 -0.13    +1.500 Zn
DOCKED: ATOM     15  O11 DVT A 531     -15.981 -17.551 -26.016 +0.00 +0.07    -0.750 OA
DOCKED: ATOM     16  O25 DVT A 531     -16.888 -19.635 -24.275 +0.00 +0.07    -0.750 OA
DOCKED: ATOM     17  O21 DVT A 531     -15.828 -20.083 -26.584 +0.00 +0.07    -0.750 OA
DOCKED: ATOM     18  V6  DVT A 531     -15.602 -19.900 -28.430 +0.01 -0.14    +1.500 Zn
DOCKED: ATOM     19  O19 DVT A 531     -16.268 -19.502 -30.143 +0.02 +0.02    -0.750 OA
DOCKED: ATOM     20  O22 DVT A 531     -14.428 -20.978 -28.597 +0.00 +0.10    -0.750 OA
DOCKED: ATOM     21  O6  DVT A 531     -14.730 -18.279 -28.253 +0.01 +0.08    -0.750 OA
DOCKED: ATOM     22  V8  DVT A 531     -18.623 -20.333 -28.082 +0.02 -0.05    +1.500 Zn
DOCKED: ATOM     23  O20 DVT A 531     -17.237 -21.156 -28.525 +0.01 +0.05    -0.750 OA
DOCKED: ATOM     24  O23 DVT A 531     -19.882 -21.433 -28.130 +0.01 +0.03    -0.750 OA
DOCKED: ATOM     25  O16 DVT A 531     -17.448 -18.607 -27.902 +0.01 +0.02    -0.750 OA
DOCKED: ATOM     26  V5  DVT A 531     -15.856 -16.872 -27.768 +0.01 -0.10    +1.500 Zn
DOCKED: ATOM     27  O14 DVT A 531     -14.906 -15.579 -27.651 +0.00 +0.07    -0.750 OA
DOCKED: ATOM     28  O7  DVT A 531     -17.618 -15.950 -27.355 +0.01 +0.02    -0.750 OA
DOCKED: ATOM     29  V2  DVT A 531     -18.890 -17.065 -27.451 +0.03 +0.00    +1.500 Zn
DOCKED: ATOM     30  O1  DVT A 531     -20.276 -16.202 -27.057 +0.01 +0.01    -0.750 OA
DOCKED: ATOM     31  O17 DVT A 531     -18.981 -19.496 -29.793 +0.03 -0.09    -0.750 OA
DOCKED: ATOM     32  V4  DVT A 531     -17.481 -18.206 -30.077 +0.09 +0.26    +1.500 Zn
DOCKED: ATOM     33  O13 DVT A 531     -16.380 -16.846 -29.592 +0.03 -0.04    -0.750 OA
DOCKED: ATOM     34  O12 DVT A 531     -17.724 -17.776 -31.609 -0.18 -0.64    -0.750 OA
DOCKED: ATOM     35  O9  DVT A 531     -18.969 -17.120 -29.331 +0.03 -0.15    -0.750 OA
DOCKED: ATOM     36  V3  DVT A 531     -20.561 -18.289 -29.694 +0.17 +0.38    +1.500 Zn
DOCKED: ATOM     37  O3  DVT A 531     -21.760 -17.173 -28.911 +0.04 -0.10    -0.750 OA
DOCKED: ATOM     38  O10 DVT A 531     -20.766 -17.828 -31.236 -0.37 -0.79    -0.750 OA
DOCKED: ENDROOT
DOCKED: TORSDOF 0
DOCKED: TER
DOCKED: ENDMDL
________________________________________________________________________________


	BEGINNING GENETIC ALGORITHM DOCKING 30 of 50
Run: 30 Seed: 1410223946 1142415264 [ Run 30 of 50 GA/GALS ]
Beginning LAMARCKIAN GENETIC ALGORITHM (LGA), with a maximum of 2500000 energy evaluations.

Final-Value: -0.687


	FINAL GENETIC ALGORITHM DOCKED STATE
	_______________________________________________


Detailed state:  trans -18.733 -18.613 -27.737 quatxyzw -0.546330 0.088507 -0.696950 0.456016 center 38.166 -0.098 117.777 ntor 0
State:	-18.733 -18.613 -27.737  -0.614  0.099 -0.783 125.739  

DOCKED: MODEL       30
DOCKED: USER    Run = 30
DOCKED: USER    DPF = atp_pocket.dpf
DOCKED: USER  
DOCKED: USER    Estimated Free Energy of Binding    =   -0.69 kcal/mol  [=(1)+(2)+(3)-(4)]
DOCKED: USER    Estimated Inhibition Constant, Ki   =  313.87 mM (millimolar)  [Temperature = 298.15 K]
DOCKED: USER    
DOCKED: USER    (1) Final Intermolecular Energy     =   -0.69 kcal/mol
DOCKED: USER        vdW + Hbond + desolv Energy     =   +0.18 kcal/mol
DOCKED: USER        Electrostatic Energy            =   -0.87 kcal/mol
DOCKED: USER    (2) Final Total Internal Energy     =   +0.00 kcal/mol
DOCKED: USER    (3) Torsional Free Energy           =   +0.00 kcal/mol
DOCKED: USER    (4) Unbound System's Energy  [=(2)] =   +0.00 kcal/mol
DOCKED: USER    
DOCKED: USER    
DOCKED: USER    NEWDPF move ../ligands/decavanadate.pdbqt
DOCKED: USER    NEWDPF about 38.166447 -0.097658 117.776763
DOCKED: USER    NEWDPF tran0 -18.732869 -18.612729 -27.737245
DOCKED: USER    NEWDPF quaternion0 -0.546330 0.088507 -0.696950 0.456016
DOCKED: USER    NEWDPF axisangle0 -0.613873 0.099449 -0.783115 125.739378
DOCKED: USER    NEWDPF quat0 -0.613873 0.099449 -0.783115 125.739378
DOCKED: USER  keepresnum = 1 
DOCKED: USER  
DOCKED: USER                              x       y       z     vdW  Elec       q    Type
DOCKED: USER                           _______ _______ _______ _____ _____    ______ ____
DOCKED: ROOT
DOCKED: ATOM      1  O28 DVT A 531     -22.517 -21.767 -27.829 +0.01 +0.03    -0.750 OA
DOCKED: ATOM      2  V10 DVT A 531     -21.589 -20.489 -27.762 +0.03 -0.03    +1.500 Zn
DOCKED: ATOM      3  O18 DVT A 531     -21.601 -19.677 -29.425 +0.05 -0.07    -0.750 OA
DOCKED: ATOM      4  O15 DVT A 531     -22.697 -19.091 -27.299 +0.02 +0.01    -0.750 OA
DOCKED: ATOM      5  V1  DVT A 531     -21.877 -17.463 -27.070 +0.04 -0.01    +1.500 Zn
DOCKED: ATOM      6  O5  DVT A 531     -23.082 -16.438 -26.699 +0.01 +0.02    -0.750 OA
DOCKED: ATOM      7  O27 DVT A 531     -21.057 -20.542 -25.953 +0.00 +0.05    -0.750 OA
DOCKED: ATOM      8  V9  DVT A 531     -19.952 -19.185 -25.395 +0.00 -0.10    +1.500 Zn
DOCKED: ATOM      9  O2  DVT A 531     -20.028 -18.744 -27.583 +0.02 -0.00    -0.750 OA
DOCKED: ATOM     10  O4  DVT A 531     -21.274 -17.964 -25.360 +0.00 +0.05    -0.750 OA
DOCKED: ATOM     11  O8  DVT A 531     -18.610 -17.718 -25.663 +0.00 +0.05    -0.750 OA
DOCKED: ATOM     12  O26 DVT A 531     -19.662 -19.648 -23.885 +0.00 +0.07    -0.750 OA
DOCKED: ATOM     13  O24 DVT A 531     -18.393 -20.222 -26.146 +0.00 +0.05    -0.750 OA
DOCKED: ATOM     14  V7  DVT A 531     -16.984 -18.827 -25.715 +0.00 -0.13    +1.500 Zn
DOCKED: ATOM     15  O11 DVT A 531     -15.970 -17.391 -26.021 +0.00 +0.07    -0.750 OA
DOCKED: ATOM     16  O25 DVT A 531     -16.833 -19.470 -24.252 +0.00 +0.07    -0.750 OA
DOCKED: ATOM     17  O21 DVT A 531     -15.769 -19.926 -26.557 +0.00 +0.07    -0.750 OA
DOCKED: ATOM     18  V6  DVT A 531     -15.550 -19.762 -28.406 +0.01 -0.14    +1.500 Zn
DOCKED: ATOM     19  O19 DVT A 531     -16.227 -19.399 -30.122 +0.02 +0.02    -0.750 OA
DOCKED: ATOM     20  O22 DVT A 531     -14.356 -20.819 -28.562 +0.00 +0.10    -0.750 OA
DOCKED: ATOM     21  O6  DVT A 531     -14.710 -18.122 -28.251 +0.01 +0.08    -0.750 OA
DOCKED: ATOM     22  V8  DVT A 531     -18.561 -20.249 -28.047 +0.02 -0.05    +1.500 Zn
DOCKED: ATOM     23  O20 DVT A 531     -17.161 -21.051 -28.481 +0.01 +0.05    -0.750 OA
DOCKED: ATOM     24  O23 DVT A 531     -19.799 -21.375 -28.078 +0.01 +0.03    -0.750 OA
DOCKED: ATOM     25  O16 DVT A 531     -17.421 -18.499 -27.890 +0.01 +0.02    -0.750 OA
DOCKED: ATOM     26  V5  DVT A 531     -15.862 -16.732 -27.781 +0.01 -0.09    +1.500 Zn
DOCKED: ATOM     27  O14 DVT A 531     -14.937 -15.419 -27.683 +0.00 +0.07    -0.750 OA
DOCKED: ATOM     28  O7  DVT A 531     -17.641 -15.839 -27.377 +0.01 +0.02    -0.750 OA
DOCKED: ATOM     29  V2  DVT A 531     -18.891 -16.980 -27.456 +0.03 +0.00    +1.500 Zn
DOCKED: ATOM     30  O1  DVT A 531     -20.293 -16.139 -27.070 +0.01 +0.01    -0.750 OA
DOCKED: ATOM     31  O17 DVT A 531     -18.939 -19.441 -29.767 +0.03 -0.09    -0.750 OA
DOCKED: ATOM     32  V4  DVT A 531     -17.464 -18.126 -30.070 +0.09 +0.26    +1.500 Zn
DOCKED: ATOM     33  O13 DVT A 531     -16.389 -16.739 -29.604 +0.03 -0.04    -0.750 OA
DOCKED: ATOM     34  O12 DVT A 531     -17.719 -17.720 -31.607 -0.18 -0.65    -0.750 OA
DOCKED: ATOM     35  O9  DVT A 531     -18.973 -17.059 -29.335 +0.03 -0.15    -0.750 OA
DOCKED: ATOM     36  V3  DVT A 531     -20.542 -18.264 -29.680 +0.16 +0.38    +1.500 Zn
DOCKED: ATOM     37  O3  DVT A 531     -21.761 -17.162 -28.908 +0.04 -0.10    -0.750 OA
DOCKED: ATOM     38  O10 DVT A 531     -20.759 -17.827 -31.227 -0.36 -0.78    -0.750 OA
DOCKED: ENDROOT
DOCKED: TORSDOF 0
DOCKED: TER
DOCKED: ENDMDL
________________________________________________________________________________


	BEGINNING GENETIC ALGORITHM DOCKING 31 of 50
Run: 31 Seed: 1700683660 1624066501 [ Run 31 of 50 GA/GALS ]
Beginning LAMARCKIAN GENETIC ALGORITHM (LGA), with a maximum of 2500000 energy evaluations.

Final-Value: -0.663


	FINAL GENETIC ALGORITHM DOCKED STATE
	_______________________________________________


Detailed state:  trans -18.444 -18.419 -27.832 quatxyzw 0.550423 -0.054639 0.677397 -0.484956 center 38.166 -0.098 117.777 ntor 0
State:	-18.444 -18.419 -27.832   0.629 -0.062  0.775 -121.981  

DOCKED: MODEL       31
DOCKED: USER    Run = 31
DOCKED: USER    DPF = atp_pocket.dpf
DOCKED: USER  
DOCKED: USER    Estimated Free Energy of Binding    =   -0.66 kcal/mol  [=(1)+(2)+(3)-(4)]
DOCKED: USER    Estimated Inhibition Constant, Ki   =  326.51 mM (millimolar)  [Temperature = 298.15 K]
DOCKED: USER    
DOCKED: USER    (1) Final Intermolecular Energy     =   -0.66 kcal/mol
DOCKED: USER        vdW + Hbond + desolv Energy     =   +0.28 kcal/mol
DOCKED: USER        Electrostatic Energy            =   -0.94 kcal/mol
DOCKED: USER    (2) Final Total Internal Energy     =   +0.00 kcal/mol
DOCKED: USER    (3) Torsional Free Energy           =   +0.00 kcal/mol
DOCKED: USER    (4) Unbound System's Energy  [=(2)] =   +0.00 kcal/mol
DOCKED: USER    
DOCKED: USER    
DOCKED: USER    NEWDPF move ../ligands/decavanadate.pdbqt
DOCKED: USER    NEWDPF about 38.166447 -0.097658 117.776763
DOCKED: USER    NEWDPF tran0 -18.443884 -18.419133 -27.831980
DOCKED: USER    NEWDPF quaternion0 0.550423 -0.054639 0.677397 -0.484956
DOCKED: USER    NEWDPF axisangle0 0.629386 -0.062478 0.774577 -121.980821
DOCKED: USER    NEWDPF quat0 0.629386 -0.062478 0.774577 -121.980821
DOCKED: USER  keepresnum = 1 
DOCKED: USER  
DOCKED: USER                              x       y       z     vdW  Elec       q    Type
DOCKED: USER                           _______ _______ _______ _____ _____    ______ ____
DOCKED: ROOT
DOCKED: ATOM      1  O28 DVT A 531     -22.282 -21.485 -27.460 +0.01 +0.03    -0.750 OA
DOCKED: ATOM      2  V10 DVT A 531     -21.329 -20.227 -27.543 +0.03 -0.03    +1.500 Zn
DOCKED: ATOM      3  O18 DVT A 531     -21.433 -19.535 -29.257 +0.05 -0.07    -0.750 OA
DOCKED: ATOM      4  O15 DVT A 531     -22.380 -18.775 -27.115 +0.02 +0.01    -0.750 OA
DOCKED: ATOM      5  V1  DVT A 531     -21.518 -17.154 -27.054 +0.04 -0.01    +1.500 Zn
DOCKED: ATOM      6  O5  DVT A 531     -22.678 -16.078 -26.684 +0.01 +0.02    -0.750 OA
DOCKED: ATOM      7  O27 DVT A 531     -20.684 -20.164 -25.772 +0.00 +0.05    -0.750 OA
DOCKED: ATOM      8  V9  DVT A 531     -19.522 -18.796 -25.383 +0.00 -0.10    +1.500 Zn
DOCKED: ATOM      9  O2  DVT A 531     -19.729 -18.509 -27.589 +0.02 -0.00    -0.750 OA
DOCKED: ATOM     10  O4  DVT A 531     -20.816 -17.546 -25.354 +0.00 +0.05    -0.750 OA
DOCKED: ATOM     11  O8  DVT A 531     -18.172 -17.383 -25.840 +0.00 +0.05    -0.750 OA
DOCKED: ATOM     12  O26 DVT A 531     -19.144 -19.157 -23.865 +0.00 +0.07    -0.750 OA
DOCKED: ATOM     13  O24 DVT A 531     -18.033 -19.919 -26.153 +0.00 +0.06    -0.750 OA
DOCKED: ATOM     14  V7  DVT A 531     -16.574 -18.529 -25.912 +0.00 -0.13    +1.500 Zn
DOCKED: ATOM     15  O11 DVT A 531     -15.556 -17.142 -26.384 +0.00 +0.07    -0.750 OA
DOCKED: ATOM     16  O25 DVT A 531     -16.342 -19.070 -24.419 +0.00 +0.08    -0.750 OA
DOCKED: ATOM     17  O21 DVT A 531     -15.435 -19.712 -26.747 +0.00 +0.08    -0.750 OA
DOCKED: ATOM     18  V6  DVT A 531     -15.332 -19.685 -28.613 +0.01 -0.15    +1.500 Zn
DOCKED: ATOM     19  O19 DVT A 531     -16.110 -19.429 -30.305 +0.02 +0.02    -0.750 OA
DOCKED: ATOM     20  O22 DVT A 531     -14.169 -20.777 -28.766 +0.00 +0.10    -0.750 OA
DOCKED: ATOM     21  O6  DVT A 531     -14.454 -18.058 -28.629 +0.01 +0.08    -0.750 OA
DOCKED: ATOM     22  V8  DVT A 531     -18.322 -20.077 -28.033 +0.02 -0.05    +1.500 Zn
DOCKED: ATOM     23  O20 DVT A 531     -16.967 -20.939 -28.495 +0.01 +0.05    -0.750 OA
DOCKED: ATOM     24  O23 DVT A 531     -19.579 -21.173 -27.906 +0.01 +0.03    -0.750 OA
DOCKED: ATOM     25  O16 DVT A 531     -17.142 -18.346 -28.074 +0.01 +0.02    -0.750 OA
DOCKED: ATOM     26  V5  DVT A 531     -15.548 -16.612 -28.190 +0.02 -0.10    +1.500 Zn
DOCKED: ATOM     27  O14 DVT A 531     -14.594 -15.317 -28.245 +0.01 +0.07    -0.750 OA
DOCKED: ATOM     28  O7  DVT A 531     -17.281 -15.652 -27.741 +0.01 +0.02    -0.750 OA
DOCKED: ATOM     29  V2  DVT A 531     -18.554 -16.767 -27.660 +0.03 +0.01    +1.500 Zn
DOCKED: ATOM     30  O1  DVT A 531     -19.913 -15.869 -27.249 +0.02 +0.00    -0.750 OA
DOCKED: ATOM     31  O17 DVT A 531     -18.794 -19.384 -29.780 +0.03 -0.10    -0.750 OA
DOCKED: ATOM     32  V4  DVT A 531     -17.318 -18.128 -30.269 +0.09 +0.29    +1.500 Zn
DOCKED: ATOM     33  O13 DVT A 531     -16.191 -16.736 -29.972 +0.03 -0.05    -0.750 OA
DOCKED: ATOM     34  O12 DVT A 531     -17.663 -17.827 -31.812 -0.13 -0.73    -0.750 OA
DOCKED: ATOM     35  O9  DVT A 531     -18.757 -16.978 -29.519 +0.02 -0.17    -0.750 OA
DOCKED: ATOM     36  V3  DVT A 531     -20.367 -18.168 -29.678 +0.16 +0.39    +1.500 Zn
DOCKED: ATOM     37  O3  DVT A 531     -21.513 -16.987 -28.914 +0.04 -0.10    -0.750 OA
DOCKED: ATOM     38  O10 DVT A 531     -20.674 -17.837 -31.236 -0.32 -0.80    -0.750 OA
DOCKED: ENDROOT
DOCKED: TORSDOF 0
DOCKED: TER
DOCKED: ENDMDL
________________________________________________________________________________


	BEGINNING GENETIC ALGORITHM DOCKING 32 of 50
Run: 32 Seed: 268823512 1235313848 [ Run 32 of 50 GA/GALS ]
Beginning LAMARCKIAN GENETIC ALGORITHM (LGA), with a maximum of 2500000 energy evaluations.

Final-Value: -0.701


	FINAL GENETIC ALGORITHM DOCKED STATE
	_______________________________________________


Detailed state:  trans -18.706 -18.048 -27.676 quatxyzw -0.522887 0.027577 -0.725331 0.446904 center 38.166 -0.098 117.777 ntor 0
State:	-18.706 -18.048 -27.676  -0.585  0.031 -0.811 126.910  

DOCKED: MODEL       32
DOCKED: USER    Run = 32
DOCKED: USER    DPF = atp_pocket.dpf
DOCKED: USER  
DOCKED: USER    Estimated Free Energy of Binding    =   -0.70 kcal/mol  [=(1)+(2)+(3)-(4)]
DOCKED: USER    Estimated Inhibition Constant, Ki   =  306.27 mM (millimolar)  [Temperature = 298.15 K]
DOCKED: USER    
DOCKED: USER    (1) Final Intermolecular Energy     =   -0.70 kcal/mol
DOCKED: USER        vdW + Hbond + desolv Energy     =   +0.25 kcal/mol
DOCKED: USER        Electrostatic Energy            =   -0.95 kcal/mol
DOCKED: USER    (2) Final Total Internal Energy     =   +0.00 kcal/mol
DOCKED: USER    (3) Torsional Free Energy           =   +0.00 kcal/mol
DOCKED: USER    (4) Unbound System's Energy  [=(2)] =   +0.00 kcal/mol
DOCKED: USER    
DOCKED: USER    
DOCKED: USER    NEWDPF move ../ligands/decavanadate.pdbqt
DOCKED: USER    NEWDPF about 38.166447 -0.097658 117.776763
DOCKED: USER    NEWDPF tran0 -18.706429 -18.047654 -27.675530
DOCKED: USER    NEWDPF quaternion0 -0.522887 0.027577 -0.725331 0.446904
DOCKED: USER    NEWDPF axisangle0 -0.584504 0.030827 -0.810805 126.909544
DOCKED: USER    NEWDPF quat0 -0.584504 0.030827 -0.810805 126.909544
DOCKED: USER  keepresnum = 1 
DOCKED: USER  
DOCKED: USER                              x       y       z     vdW  Elec       q    Type
DOCKED: USER                           _______ _______ _______ _____ _____    ______ ____
DOCKED: ROOT
DOCKED: ATOM      1  O28 DVT A 531     -22.153 -21.562 -27.463 +0.01 +0.03    -0.750 OA
DOCKED: ATOM      2  V10 DVT A 531     -21.359 -20.196 -27.523 +0.03 -0.03    +1.500 Zn
DOCKED: ATOM      3  O18 DVT A 531     -21.428 -19.562 -29.260 +0.05 -0.07    -0.750 OA
DOCKED: ATOM      4  O15 DVT A 531     -22.608 -18.878 -27.209 +0.02 +0.01    -0.750 OA
DOCKED: ATOM      5  V1  DVT A 531     -21.960 -17.161 -27.143 +0.05 -0.01    +1.500 Zn
DOCKED: ATOM      6  O5  DVT A 531     -23.267 -16.231 -26.883 +0.02 +0.02    -0.750 OA
DOCKED: ATOM      7  O27 DVT A 531     -20.852 -20.013 -25.715 +0.00 +0.05    -0.750 OA
DOCKED: ATOM      8  V9  DVT A 531     -19.897 -18.502 -25.293 +0.00 -0.10    +1.500 Zn
DOCKED: ATOM      9  O2  DVT A 531     -19.984 -18.293 -27.515 +0.01 -0.00    -0.750 OA
DOCKED: ATOM     10  O4  DVT A 531     -21.335 -17.423 -25.388 +0.00 +0.05    -0.750 OA
DOCKED: ATOM     11  O8  DVT A 531     -18.704 -16.941 -25.703 +0.00 +0.05    -0.750 OA
DOCKED: ATOM     12  O26 DVT A 531     -19.584 -18.779 -23.743 +0.00 +0.07    -0.750 OA
DOCKED: ATOM     13  O24 DVT A 531     -18.231 -19.446 -25.927 +0.00 +0.05    -0.750 OA
DOCKED: ATOM     14  V7  DVT A 531     -16.975 -17.879 -25.634 +0.00 -0.13    +1.500 Zn
DOCKED: ATOM     15  O11 DVT A 531     -16.106 -16.386 -26.080 +0.00 +0.07    -0.750 OA
DOCKED: ATOM     16  O25 DVT A 531     -16.782 -18.353 -24.113 +0.00 +0.07    -0.750 OA
DOCKED: ATOM     17  O21 DVT A 531     -15.644 -18.929 -26.354 +0.00 +0.07    -0.750 OA
DOCKED: ATOM     18  V6  DVT A 531     -15.415 -18.930 -28.209 +0.01 -0.13    +1.500 Zn
DOCKED: ATOM     19  O19 DVT A 531     -16.099 -18.812 -29.957 +0.02 +0.01    -0.750 OA
DOCKED: ATOM     20  O22 DVT A 531     -14.118 -19.871 -28.252 +0.00 +0.10    -0.750 OA
DOCKED: ATOM     21  O6  DVT A 531     -14.746 -17.207 -28.218 +0.01 +0.07    -0.750 OA
DOCKED: ATOM     22  V8  DVT A 531     -18.367 -19.681 -27.816 +0.02 -0.04    +1.500 Zn
DOCKED: ATOM     23  O20 DVT A 531     -16.887 -20.376 -28.161 +0.01 +0.05    -0.750 OA
DOCKED: ATOM     24  O23 DVT A 531     -19.485 -20.924 -27.739 +0.01 +0.03    -0.750 OA
DOCKED: ATOM     25  O16 DVT A 531     -17.410 -17.817 -27.833 +0.01 +0.01    -0.750 OA
DOCKED: ATOM     26  V5  DVT A 531     -16.038 -15.900 -27.897 +0.02 -0.08    +1.500 Zn
DOCKED: ATOM     27  O14 DVT A 531     -15.251 -14.497 -27.929 +0.01 +0.06    -0.750 OA
DOCKED: ATOM     28  O7  DVT A 531     -17.903 -15.156 -27.594 +0.01 +0.01    -0.750 OA
DOCKED: ATOM     29  V2  DVT A 531     -19.031 -16.419 -27.563 +0.03 +0.01    +1.500 Zn
DOCKED: ATOM     30  O1  DVT A 531     -20.517 -15.690 -27.270 +0.02 +0.00    -0.750 OA
DOCKED: ATOM     31  O17 DVT A 531     -18.798 -19.092 -29.612 +0.03 -0.10    -0.750 OA
DOCKED: ATOM     32  V4  DVT A 531     -17.459 -17.672 -30.040 +0.10 +0.30    +1.500 Zn
DOCKED: ATOM     33  O13 DVT A 531     -16.535 -16.144 -29.713 +0.03 -0.06    -0.750 OA
DOCKED: ATOM     34  O12 DVT A 531     -17.730 -17.451 -31.611 -0.14 -0.72    -0.750 OA
DOCKED: ATOM     35  O9  DVT A 531     -19.077 -16.695 -29.424 +0.03 -0.17    -0.750 OA
DOCKED: ATOM     36  V3  DVT A 531     -20.512 -18.081 -29.652 +0.16 +0.39    +1.500 Zn
DOCKED: ATOM     37  O3  DVT A 531     -21.847 -17.036 -29.002 +0.04 -0.11    -0.750 OA
DOCKED: ATOM     38  O10 DVT A 531     -20.749 -17.826 -31.236 -0.36 -0.79    -0.750 OA
DOCKED: ENDROOT
DOCKED: TORSDOF 0
DOCKED: TER
DOCKED: ENDMDL
________________________________________________________________________________


	BEGINNING GENETIC ALGORITHM DOCKING 33 of 50
Run: 33 Seed: 838205724 45996265 [ Run 33 of 50 GA/GALS ]
Beginning LAMARCKIAN GENETIC ALGORITHM (LGA), with a maximum of 2500000 energy evaluations.

Final-Value: -0.836


	FINAL GENETIC ALGORITHM DOCKED STATE
	_______________________________________________


Detailed state:  trans -17.453 -13.316 -28.948 quatxyzw 0.083886 0.337829 -0.917086 0.194391 center 38.166 -0.098 117.777 ntor 0
State:	-17.453 -13.316 -28.948   0.086  0.344 -0.935 157.582  

DOCKED: MODEL       33
DOCKED: USER    Run = 33
DOCKED: USER    DPF = atp_pocket.dpf
DOCKED: USER  
DOCKED: USER    Estimated Free Energy of Binding    =   -0.84 kcal/mol  [=(1)+(2)+(3)-(4)]
DOCKED: USER    Estimated Inhibition Constant, Ki   =  243.80 mM (millimolar)  [Temperature = 298.15 K]
DOCKED: USER    
DOCKED: USER    (1) Final Intermolecular Energy     =   -0.84 kcal/mol
DOCKED: USER        vdW + Hbond + desolv Energy     =   +0.55 kcal/mol
DOCKED: USER        Electrostatic Energy            =   -1.39 kcal/mol
DOCKED: USER    (2) Final Total Internal Energy     =   +0.00 kcal/mol
DOCKED: USER    (3) Torsional Free Energy           =   +0.00 kcal/mol
DOCKED: USER    (4) Unbound System's Energy  [=(2)] =   +0.00 kcal/mol
DOCKED: USER    
DOCKED: USER    
DOCKED: USER    NEWDPF move ../ligands/decavanadate.pdbqt
DOCKED: USER    NEWDPF about 38.166447 -0.097658 117.776763
DOCKED: USER    NEWDPF tran0 -17.452781 -13.315658 -28.947587
DOCKED: USER    NEWDPF quaternion0 0.083886 0.337829 -0.917086 0.194391
DOCKED: USER    NEWDPF axisangle0 0.085517 0.344398 -0.934921 157.581671
DOCKED: USER    NEWDPF quat0 0.085517 0.344398 -0.934921 157.581671
DOCKED: USER  keepresnum = 1 
DOCKED: USER  
DOCKED: USER                              x       y       z     vdW  Elec       q    Type
DOCKED: USER                           _______ _______ _______ _____ _____    ______ ____
DOCKED: ROOT
DOCKED: ATOM      1  O28 DVT A 531     -16.964 -16.841 -32.354 -0.44 -0.74    -0.750 OA
DOCKED: ATOM      2  V10 DVT A 531     -17.200 -15.487 -31.574 +0.18 +0.79    +1.500 Zn
DOCKED: ATOM      3  O18 DVT A 531     -15.669 -14.457 -31.727 +0.05 -0.13    -0.750 OA
DOCKED: ATOM      4  O15 DVT A 531     -17.873 -14.305 -32.818 +0.02 -0.69    -0.750 OA
DOCKED: ATOM      5  V1  DVT A 531     -18.321 -12.642 -32.180 +0.28 +0.76    +1.500 Zn
DOCKED: ATOM      6  O5  DVT A 531     -18.851 -11.826 -33.481 -0.44 -0.79    -0.750 OA
DOCKED: ATOM      7  O27 DVT A 531     -18.975 -15.732 -30.986 +0.08 -0.47    -0.750 OA
DOCKED: ATOM      8  V9  DVT A 531     -19.706 -14.348 -30.024 +0.15 +0.32    +1.500 Zn
DOCKED: ATOM      9  O2  DVT A 531     -17.604 -13.616 -30.215 +0.05 -0.11    -0.750 OA
DOCKED: ATOM     10  O4  DVT A 531     -19.933 -13.305 -31.473 +0.05 -0.25    -0.750 OA
DOCKED: ATOM     11  O8  DVT A 531     -19.631 -12.713 -28.863 +0.03 -0.01    -0.750 OA
DOCKED: ATOM     12  O26 DVT A 531     -21.130 -14.981 -29.638 +0.04 -0.14    -0.750 OA
DOCKED: ATOM     13  O24 DVT A 531     -18.793 -15.082 -28.382 +0.03 -0.04    -0.750 OA
DOCKED: ATOM     14  V7  DVT A 531     -19.400 -13.608 -27.126 +0.01 -0.07    +1.500 Zn
DOCKED: ATOM     15  O11 DVT A 531     -19.288 -12.036 -26.289 +0.00 +0.07    -0.750 OA
DOCKED: ATOM     16  O25 DVT A 531     -20.753 -14.428 -26.860 +0.01 +0.03    -0.750 OA
DOCKED: ATOM     17  O21 DVT A 531     -18.393 -14.430 -25.821 +0.00 +0.06    -0.750 OA
DOCKED: ATOM     18  V6  DVT A 531     -16.583 -13.984 -25.677 +0.00 -0.14    +1.500 Zn
DOCKED: ATOM     19  O19 DVT A 531     -14.946 -13.465 -26.442 +0.00 +0.08    -0.750 OA
DOCKED: ATOM     20  O22 DVT A 531     -16.261 -14.864 -24.377 +0.00 +0.08    -0.750 OA
DOCKED: ATOM     21  O6  DVT A 531     -16.960 -12.297 -25.022 +0.00 +0.08    -0.750 OA
DOCKED: ATOM     22  V8  DVT A 531     -16.910 -14.862 -28.603 +0.04 +0.00    +1.500 Zn
DOCKED: ATOM     23  O20 DVT A 531     -16.346 -15.427 -27.135 +0.00 +0.05    -0.750 OA
DOCKED: ATOM     24  O23 DVT A 531     -16.735 -16.107 -29.706 +0.03 -0.07    -0.750 OA
DOCKED: ATOM     25  O16 DVT A 531     -17.300 -13.030 -27.662 +0.01 +0.04    -0.750 OA
DOCKED: ATOM     26  V5  DVT A 531     -17.638 -11.128 -26.309 +0.00 -0.15    +1.500 Zn
DOCKED: ATOM     27  O14 DVT A 531     -17.910  -9.744 -25.534 +0.00 +0.09    -0.750 OA
DOCKED: ATOM     28  O7  DVT A 531     -18.191 -10.513 -28.164 +0.00 +0.06    -0.750 OA
DOCKED: ATOM     29  V2  DVT A 531     -17.966 -11.768 -29.279 +0.05 -0.01    +1.500 Zn
DOCKED: ATOM     30  O1  DVT A 531     -18.488 -11.157 -30.755 +0.05 -0.05    -0.750 OA
DOCKED: ATOM     31  O17 DVT A 531     -15.329 -13.869 -29.120 +0.02 +0.04    -0.750 OA
DOCKED: ATOM     32  V4  DVT A 531     -15.196 -12.363 -27.812 +0.00 -0.14    +1.500 Zn
DOCKED: ATOM     33  O13 DVT A 531     -15.841 -10.940 -26.887 +0.00 +0.08    -0.750 OA
DOCKED: ATOM     34  O12 DVT A 531     -13.737 -11.778 -28.157 +0.00 +0.09    -0.750 OA
DOCKED: ATOM     35  O9  DVT A 531     -16.097 -11.592 -29.408 +0.02 +0.03    -0.750 OA
DOCKED: ATOM     36  V3  DVT A 531     -15.605 -12.909 -30.842 +0.12 +0.09    +1.500 Zn
DOCKED: ATOM     37  O3  DVT A 531     -16.543 -12.074 -32.153 +0.04 -0.26    -0.750 OA
DOCKED: ATOM     38  O10 DVT A 531     -14.140 -12.287 -31.153 +0.04 +0.04    -0.750 OA
DOCKED: ENDROOT
DOCKED: TORSDOF 0
DOCKED: TER
DOCKED: ENDMDL
________________________________________________________________________________


	BEGINNING GENETIC ALGORITHM DOCKING 34 of 50
Run: 34 Seed: 480376231 1180252180 [ Run 34 of 50 GA/GALS ]
Beginning LAMARCKIAN GENETIC ALGORITHM (LGA), with a maximum of 2500000 energy evaluations.

Final-Value: -0.688


	FINAL GENETIC ALGORITHM DOCKED STATE
	_______________________________________________


Detailed state:  trans -18.733 -18.669 -27.766 quatxyzw 0.553885 -0.092802 0.702868 -0.436550 center 38.166 -0.098 117.777 ntor 0
State:	-18.733 -18.669 -27.766   0.616 -0.103  0.781 -128.232  

DOCKED: MODEL       34
DOCKED: USER    Run = 34
DOCKED: USER    DPF = atp_pocket.dpf
DOCKED: USER  
DOCKED: USER    Estimated Free Energy of Binding    =   -0.69 kcal/mol  [=(1)+(2)+(3)-(4)]
DOCKED: USER    Estimated Inhibition Constant, Ki   =  313.28 mM (millimolar)  [Temperature = 298.15 K]
DOCKED: USER    
DOCKED: USER    (1) Final Intermolecular Energy     =   -0.69 kcal/mol
DOCKED: USER        vdW + Hbond + desolv Energy     =   +0.20 kcal/mol
DOCKED: USER        Electrostatic Energy            =   -0.89 kcal/mol
DOCKED: USER    (2) Final Total Internal Energy     =   +0.00 kcal/mol
DOCKED: USER    (3) Torsional Free Energy           =   +0.00 kcal/mol
DOCKED: USER    (4) Unbound System's Energy  [=(2)] =   +0.00 kcal/mol
DOCKED: USER    
DOCKED: USER    
DOCKED: USER    NEWDPF move ../ligands/decavanadate.pdbqt
DOCKED: USER    NEWDPF about 38.166447 -0.097658 117.776763
DOCKED: USER    NEWDPF tran0 -18.733005 -18.668932 -27.765922
DOCKED: USER    NEWDPF quaternion0 0.553885 -0.092802 0.702868 -0.436550
DOCKED: USER    NEWDPF axisangle0 0.615647 -0.103150 0.781242 -128.232070
DOCKED: USER    NEWDPF quat0 0.615647 -0.103150 0.781242 -128.232070
DOCKED: USER  keepresnum = 1 
DOCKED: USER  
DOCKED: USER                              x       y       z     vdW  Elec       q    Type
DOCKED: USER                           _______ _______ _______ _____ _____    ______ ____
DOCKED: ROOT
DOCKED: ATOM      1  O28 DVT A 531     -22.423 -21.927 -27.976 +0.01 +0.03    -0.750 OA
DOCKED: ATOM      2  V10 DVT A 531     -21.533 -20.625 -27.863 +0.03 -0.03    +1.500 Zn
DOCKED: ATOM      3  O18 DVT A 531     -21.564 -19.760 -29.499 +0.05 -0.07    -0.750 OA
DOCKED: ATOM      4  O15 DVT A 531     -22.682 -19.276 -27.359 +0.02 +0.01    -0.750 OA
DOCKED: ATOM      5  V1  DVT A 531     -21.912 -17.634 -27.072 +0.04 -0.01    +1.500 Zn
DOCKED: ATOM      6  O5  DVT A 531     -23.147 -16.658 -26.673 +0.01 +0.02    -0.750 OA
DOCKED: ATOM      7  O27 DVT A 531     -21.005 -20.723 -26.055 +0.00 +0.05    -0.750 OA
DOCKED: ATOM      8  V9  DVT A 531     -19.942 -19.354 -25.448 +0.00 -0.10    +1.500 Zn
DOCKED: ATOM      9  O2  DVT A 531     -20.024 -18.842 -27.621 +0.02 -0.00    -0.750 OA
DOCKED: ATOM     10  O4  DVT A 531     -21.299 -18.173 -25.378 +0.00 +0.05    -0.750 OA
DOCKED: ATOM     11  O8  DVT A 531     -18.642 -17.840 -25.663 +0.00 +0.05    -0.750 OA
DOCKED: ATOM     12  O26 DVT A 531     -19.642 -19.858 -23.954 +0.00 +0.06    -0.750 OA
DOCKED: ATOM     13  O24 DVT A 531     -18.351 -20.320 -26.227 +0.00 +0.05    -0.750 OA
DOCKED: ATOM     14  V7  DVT A 531     -16.985 -18.899 -25.745 +0.00 -0.13    +1.500 Zn
DOCKED: ATOM     15  O11 DVT A 531     -16.012 -17.425 -26.000 +0.00 +0.07    -0.750 OA
DOCKED: ATOM     16  O25 DVT A 531     -16.819 -19.586 -24.304 +0.00 +0.07    -0.750 OA
DOCKED: ATOM     17  O21 DVT A 531     -15.736 -19.934 -26.618 +0.00 +0.07    -0.750 OA
DOCKED: ATOM     18  V6  DVT A 531     -15.516 -19.702 -28.460 +0.01 -0.14    +1.500 Zn
DOCKED: ATOM     19  O19 DVT A 531     -16.198 -19.303 -30.166 +0.02 +0.01    -0.750 OA
DOCKED: ATOM     20  O22 DVT A 531     -14.291 -20.719 -28.646 +0.00 +0.10    -0.750 OA
DOCKED: ATOM     21  O6  DVT A 531     -14.725 -18.045 -28.248 +0.01 +0.08    -0.750 OA
DOCKED: ATOM     22  V8  DVT A 531     -18.513 -20.289 -28.129 +0.02 -0.04    +1.500 Zn
DOCKED: ATOM     23  O20 DVT A 531     -17.089 -21.034 -28.584 +0.01 +0.05    -0.750 OA
DOCKED: ATOM     24  O23 DVT A 531     -19.717 -21.448 -28.202 +0.01 +0.03    -0.750 OA
DOCKED: ATOM     25  O16 DVT A 531     -17.424 -18.512 -27.910 +0.01 +0.02    -0.750 OA
DOCKED: ATOM     26  V5  DVT A 531     -15.918 -16.705 -27.737 +0.01 -0.09    +1.500 Zn
DOCKED: ATOM     27  O14 DVT A 531     -15.032 -15.370 -27.592 +0.00 +0.07    -0.750 OA
DOCKED: ATOM     28  O7  DVT A 531     -17.723 -15.878 -27.310 +0.01 +0.02    -0.750 OA
DOCKED: ATOM     29  V2  DVT A 531     -18.939 -17.051 -27.432 +0.03 +0.00    +1.500 Zn
DOCKED: ATOM     30  O1  DVT A 531     -20.367 -16.265 -27.023 +0.01 +0.01    -0.750 OA
DOCKED: ATOM     31  O17 DVT A 531     -18.909 -19.435 -29.823 +0.03 -0.10    -0.750 OA
DOCKED: ATOM     32  V4  DVT A 531     -17.473 -18.068 -30.077 +0.09 +0.27    +1.500 Zn
DOCKED: ATOM     33  O13 DVT A 531     -16.440 -16.667 -29.561 +0.03 -0.04    -0.750 OA
DOCKED: ATOM     34  O12 DVT A 531     -17.735 -17.620 -31.600 -0.16 -0.67    -0.750 OA
DOCKED: ATOM     35  O9  DVT A 531     -19.014 -17.071 -29.312 +0.03 -0.15    -0.750 OA
DOCKED: ATOM     36  V3  DVT A 531     -20.546 -18.309 -29.703 +0.17 +0.38    +1.500 Zn
DOCKED: ATOM     37  O3  DVT A 531     -21.798 -17.269 -28.900 +0.04 -0.10    -0.750 OA
DOCKED: ATOM     38  O10 DVT A 531     -20.771 -17.827 -31.235 -0.37 -0.79    -0.750 OA
DOCKED: ENDROOT
DOCKED: TORSDOF 0
DOCKED: TER
DOCKED: ENDMDL
________________________________________________________________________________


	BEGINNING GENETIC ALGORITHM DOCKING 35 of 50
Run: 35 Seed: 1063662368 1656717535 [ Run 35 of 50 GA/GALS ]
Beginning LAMARCKIAN GENETIC ALGORITHM (LGA), with a maximum of 2500000 energy evaluations.

Final-Value: -0.794


	FINAL GENETIC ALGORITHM DOCKED STATE
	_______________________________________________


Detailed state:  trans -17.125 -13.762 -28.717 quatxyzw 0.080594 0.361563 -0.898552 0.235331 center 38.166 -0.098 117.777 ntor 0
State:	-17.125 -13.762 -28.717   0.083  0.372 -0.925 152.778  

DOCKED: MODEL       35
DOCKED: USER    Run = 35
DOCKED: USER    DPF = atp_pocket.dpf
DOCKED: USER  
DOCKED: USER    Estimated Free Energy of Binding    =   -0.79 kcal/mol  [=(1)+(2)+(3)-(4)]
DOCKED: USER    Estimated Inhibition Constant, Ki   =  261.91 mM (millimolar)  [Temperature = 298.15 K]
DOCKED: USER    
DOCKED: USER    (1) Final Intermolecular Energy     =   -0.79 kcal/mol
DOCKED: USER        vdW + Hbond + desolv Energy     =   +0.42 kcal/mol
DOCKED: USER        Electrostatic Energy            =   -1.22 kcal/mol
DOCKED: USER    (2) Final Total Internal Energy     =   +0.00 kcal/mol
DOCKED: USER    (3) Torsional Free Energy           =   +0.00 kcal/mol
DOCKED: USER    (4) Unbound System's Energy  [=(2)] =   +0.00 kcal/mol
DOCKED: USER    
DOCKED: USER    
DOCKED: USER    NEWDPF move ../ligands/decavanadate.pdbqt
DOCKED: USER    NEWDPF about 38.166447 -0.097658 117.776763
DOCKED: USER    NEWDPF tran0 -17.124839 -13.762073 -28.717023
DOCKED: USER    NEWDPF quaternion0 0.080594 0.361563 -0.898552 0.235331
DOCKED: USER    NEWDPF axisangle0 0.082922 0.372011 -0.924517 152.777693
DOCKED: USER    NEWDPF quat0 0.082922 0.372011 -0.924517 152.777693
DOCKED: USER  keepresnum = 1 
DOCKED: USER  
DOCKED: USER                              x       y       z     vdW  Elec       q    Type
DOCKED: USER                           _______ _______ _______ _____ _____    ______ ____
DOCKED: ROOT
DOCKED: ATOM      1  O28 DVT A 531     -16.972 -17.086 -32.350 -0.49 -0.74    -0.750 OA
DOCKED: ATOM      2  V10 DVT A 531     -17.089 -15.771 -31.481 +0.18 +0.76    +1.500 Zn
DOCKED: ATOM      3  O18 DVT A 531     -15.487 -14.851 -31.605 +0.06 -0.09    -0.750 OA
DOCKED: ATOM      4  O15 DVT A 531     -17.692 -14.463 -32.631 +0.00 -0.64    -0.750 OA
DOCKED: ATOM      5  V1  DVT A 531     -18.000 -12.817 -31.879 +0.23 +0.64    +1.500 Zn
DOCKED: ATOM      6  O5  DVT A 531     -18.490 -11.880 -33.112 -0.33 -0.68    -0.750 OA
DOCKED: ATOM      7  O27 DVT A 531     -18.866 -15.919 -30.867 +0.05 -0.45    -0.750 OA
DOCKED: ATOM      8  V9  DVT A 531     -19.470 -14.550 -29.803 +0.13 +0.29    +1.500 Zn
DOCKED: ATOM      9  O2  DVT A 531     -17.323 -13.967 -29.997 +0.04 -0.09    -0.750 OA
DOCKED: ATOM     10  O4  DVT A 531     -19.644 -13.400 -31.177 +0.05 -0.23    -0.750 OA
DOCKED: ATOM     11  O8  DVT A 531     -19.249 -13.004 -28.543 +0.02 -0.00    -0.750 OA
DOCKED: ATOM     12  O26 DVT A 531     -20.931 -15.098 -29.424 +0.04 -0.13    -0.750 OA
DOCKED: ATOM     13  O24 DVT A 531     -18.586 -15.456 -28.232 +0.02 -0.03    -0.750 OA
DOCKED: ATOM     14  V7  DVT A 531     -19.054 -14.025 -26.872 +0.01 -0.07    +1.500 Zn
DOCKED: ATOM     15  O11 DVT A 531     -18.806 -12.523 -25.940 +0.00 +0.07    -0.750 OA
DOCKED: ATOM     16  O25 DVT A 531     -20.461 -14.756 -26.626 +0.01 +0.03    -0.750 OA
DOCKED: ATOM     17  O21 DVT A 531     -18.088 -15.004 -25.646 +0.00 +0.06    -0.750 OA
DOCKED: ATOM     18  V6  DVT A 531     -16.248 -14.705 -25.517 +0.00 -0.14    +1.500 Zn
DOCKED: ATOM     19  O19 DVT A 531     -14.590 -14.262 -26.286 +0.00 +0.08    -0.750 OA
DOCKED: ATOM     20  O22 DVT A 531     -15.970 -15.689 -24.283 +0.00 +0.08    -0.750 OA
DOCKED: ATOM     21  O6  DVT A 531     -16.481 -13.040 -24.748 +0.00 +0.08    -0.750 OA
DOCKED: ATOM     22  V8  DVT A 531     -16.696 -15.364 -28.484 +0.04 -0.01    +1.500 Zn
DOCKED: ATOM     23  O20 DVT A 531     -16.150 -16.064 -27.068 +0.00 +0.05    -0.750 OA
DOCKED: ATOM     24  O23 DVT A 531     -16.638 -16.544 -29.667 +0.03 -0.06    -0.750 OA
DOCKED: ATOM     25  O16 DVT A 531     -16.926 -13.573 -27.420 +0.01 +0.05    -0.750 OA
DOCKED: ATOM     26  V5  DVT A 531     -17.092 -11.743 -25.941 +0.00 -0.15    +1.500 Zn
DOCKED: ATOM     27  O14 DVT A 531     -17.243 -10.396 -25.075 +0.00 +0.09    -0.750 OA
DOCKED: ATOM     28  O7  DVT A 531     -17.631 -10.968 -27.740 +0.00 +0.06    -0.750 OA
DOCKED: ATOM     29  V2  DVT A 531     -17.524 -12.161 -28.938 +0.05 -0.03    +1.500 Zn
DOCKED: ATOM     30  O1  DVT A 531     -18.026 -11.418 -30.359 +0.04 -0.04    -0.750 OA
DOCKED: ATOM     31  O17 DVT A 531     -15.053 -14.461 -28.975 +0.02 +0.05    -0.750 OA
DOCKED: ATOM     32  V4  DVT A 531     -14.781 -13.058 -27.578 +0.00 -0.15    +1.500 Zn
DOCKED: ATOM     33  O13 DVT A 531     -15.297 -11.654 -26.549 +0.00 +0.08    -0.750 OA
DOCKED: ATOM     34  O12 DVT A 531     -13.287 -12.563 -27.920 +0.00 +0.10    -0.750 OA
DOCKED: ATOM     35  O9  DVT A 531     -15.650 -12.119 -29.100 +0.02 +0.04    -0.750 OA
DOCKED: ATOM     36  V3  DVT A 531     -15.288 -13.374 -30.625 +0.11 +0.03    +1.500 Zn
DOCKED: ATOM     37  O3  DVT A 531     -16.183 -12.387 -31.858 +0.04 -0.19    -0.750 OA
DOCKED: ATOM     38  O10 DVT A 531     -13.785 -12.845 -30.931 +0.04 +0.07    -0.750 OA
DOCKED: ENDROOT
DOCKED: TORSDOF 0
DOCKED: TER
DOCKED: ENDMDL
________________________________________________________________________________


	BEGINNING GENETIC ALGORITHM DOCKING 36 of 50
Run: 36 Seed: 874744915 233784546 [ Run 36 of 50 GA/GALS ]
Beginning LAMARCKIAN GENETIC ALGORITHM (LGA), with a maximum of 2500000 energy evaluations.

Final-Value: -0.857


	FINAL GENETIC ALGORITHM DOCKED STATE
	_______________________________________________


Detailed state:  trans -17.451 -13.318 -28.980 quatxyzw 0.579531 -0.131980 0.168907 0.786254 center 38.166 -0.098 117.777 ntor 0
State:	-17.451 -13.318 -28.980   0.938 -0.214  0.273 76.326  

DOCKED: MODEL       36
DOCKED: USER    Run = 36
DOCKED: USER    DPF = atp_pocket.dpf
DOCKED: USER  
DOCKED: USER    Estimated Free Energy of Binding    =   -0.86 kcal/mol  [=(1)+(2)+(3)-(4)]
DOCKED: USER    Estimated Inhibition Constant, Ki   =  235.37 mM (millimolar)  [Temperature = 298.15 K]
DOCKED: USER    
DOCKED: USER    (1) Final Intermolecular Energy     =   -0.86 kcal/mol
DOCKED: USER        vdW + Hbond + desolv Energy     =   +0.54 kcal/mol
DOCKED: USER        Electrostatic Energy            =   -1.40 kcal/mol
DOCKED: USER    (2) Final Total Internal Energy     =   +0.00 kcal/mol
DOCKED: USER    (3) Torsional Free Energy           =   +0.00 kcal/mol
DOCKED: USER    (4) Unbound System's Energy  [=(2)] =   +0.00 kcal/mol
DOCKED: USER    
DOCKED: USER    
DOCKED: USER    NEWDPF move ../ligands/decavanadate.pdbqt
DOCKED: USER    NEWDPF about 38.166447 -0.097658 117.776763
DOCKED: USER    NEWDPF tran0 -17.451473 -13.317597 -28.979785
DOCKED: USER    NEWDPF quaternion0 0.579531 -0.131980 0.168907 0.786254
DOCKED: USER    NEWDPF axisangle0 0.937899 -0.213594 0.273355 76.326334
DOCKED: USER    NEWDPF quat0 0.937899 -0.213594 0.273355 76.326334
DOCKED: USER  keepresnum = 1 
DOCKED: USER  
DOCKED: USER                              x       y       z     vdW  Elec       q    Type
DOCKED: USER                           _______ _______ _______ _____ _____    ______ ____
DOCKED: ROOT
DOCKED: ATOM      1  O28 DVT A 531     -18.861 -11.889 -33.479 -0.43 -0.79    -0.750 OA
DOCKED: ATOM      2  V10 DVT A 531     -18.385 -12.699 -32.208 +0.28 +0.78    +1.500 Zn
DOCKED: ATOM      3  O18 DVT A 531     -19.848 -13.590 -31.508 +0.04 -0.28    -0.750 OA
DOCKED: ATOM      4  O15 DVT A 531     -17.921 -14.372 -32.827 +0.03 -0.71    -0.750 OA
DOCKED: ATOM      5  V1  DVT A 531     -17.248 -15.531 -31.571 +0.18 +0.82    +1.500 Zn
DOCKED: ATOM      6  O5  DVT A 531     -16.958 -16.906 -32.386 -0.45 -0.75    -0.750 OA
DOCKED: ATOM      7  O27 DVT A 531     -16.543 -12.291 -32.209 +0.04 -0.29    -0.750 OA
DOCKED: ATOM      8  V9  DVT A 531     -15.544 -13.063 -30.876 +0.13 +0.09    +1.500 Zn
DOCKED: ATOM      9  O2  DVT A 531     -17.590 -13.684 -30.231 +0.05 -0.11    -0.750 OA
DOCKED: ATOM     10  O4  DVT A 531     -15.566 -14.693 -31.642 +0.05 -0.11    -0.750 OA
DOCKED: ATOM     11  O8  DVT A 531     -15.272 -13.916 -29.080 +0.02 +0.04    -0.750 OA
DOCKED: ATOM     12  O26 DVT A 531     -14.111 -12.398 -31.163 +0.04 +0.04    -0.750 OA
DOCKED: ATOM     13  O24 DVT A 531     -16.130 -11.573 -29.650 +0.03 +0.03    -0.750 OA
DOCKED: ATOM     14  V7  DVT A 531     -15.184 -12.274 -27.998 +0.01 -0.14    +1.500 Zn
DOCKED: ATOM     15  O11 DVT A 531     -15.022 -13.228 -26.498 +0.00 +0.08    -0.750 OA
DOCKED: ATOM     16  O25 DVT A 531     -13.857 -11.501 -28.462 +0.00 +0.09    -0.750 OA
DOCKED: ATOM     17  O21 DVT A 531     -15.940 -10.867 -27.080 +0.00 +0.08    -0.750 OA
DOCKED: ATOM     18  V6  DVT A 531     -17.648 -11.090 -26.354 +0.00 -0.15    +1.500 Zn
DOCKED: ATOM     19  O19 DVT A 531     -19.376 -11.830 -26.397 +0.00 +0.07    -0.750 OA
DOCKED: ATOM     20  O22 DVT A 531     -17.739  -9.671 -25.614 +0.00 +0.09    -0.750 OA
DOCKED: ATOM     21  O6  DVT A 531     -17.041 -12.258 -25.056 +0.00 +0.08    -0.750 OA
DOCKED: ATOM     22  V8  DVT A 531     -18.000 -11.774 -29.327 +0.06 -0.01    +1.500 Zn
DOCKED: ATOM     23  O20 DVT A 531     -18.274 -10.535 -28.241 +0.00 +0.06    -0.750 OA
DOCKED: ATOM     24  O23 DVT A 531     -18.480 -11.221 -30.831 +0.05 -0.06    -0.750 OA
DOCKED: ATOM     25  O16 DVT A 531     -17.311 -12.929 -27.720 +0.01 +0.04    -0.750 OA
DOCKED: ATOM     26  V5  DVT A 531     -16.580 -13.941 -25.719 +0.00 -0.14    +1.500 Zn
DOCKED: ATOM     27  O14 DVT A 531     -16.068 -14.781 -24.446 +0.00 +0.08    -0.750 OA
DOCKED: ATOM     28  O7  DVT A 531     -16.397 -15.413 -27.105 +0.00 +0.05    -0.750 OA
DOCKED: ATOM     29  V2  DVT A 531     -16.928 -14.855 -28.614 +0.04 +0.01    +1.500 Zn
DOCKED: ATOM     30  O1  DVT A 531     -16.694 -16.136 -29.676 +0.03 -0.07    -0.750 OA
DOCKED: ATOM     31  O17 DVT A 531     -19.593 -12.809 -28.942 +0.03 -0.01    -0.750 OA
DOCKED: ATOM     32  V4  DVT A 531     -19.356 -13.473 -27.072 +0.01 -0.07    +1.500 Zn
DOCKED: ATOM     33  O13 DVT A 531     -18.445 -14.293 -25.732 +0.00 +0.06    -0.750 OA
DOCKED: ATOM     34  O12 DVT A 531     -20.817 -14.074 -26.766 +0.01 +0.03    -0.750 OA
DOCKED: ATOM     35  O9  DVT A 531     -18.768 -14.973 -28.238 +0.02 -0.02    -0.750 OA
DOCKED: ATOM     36  V3  DVT A 531     -19.630 -14.501 -29.989 +0.15 +0.33    +1.500 Zn
DOCKED: ATOM     37  O3  DVT A 531     -18.943 -15.918 -30.891 +0.06 -0.46    -0.750 OA
DOCKED: ATOM     38  O10 DVT A 531     -21.089 -15.118 -29.635 +0.04 -0.15    -0.750 OA
DOCKED: ENDROOT
DOCKED: TORSDOF 0
DOCKED: TER
DOCKED: ENDMDL
________________________________________________________________________________


	BEGINNING GENETIC ALGORITHM DOCKING 37 of 50
Run: 37 Seed: 48012954 2045023841 [ Run 37 of 50 GA/GALS ]
Beginning LAMARCKIAN GENETIC ALGORITHM (LGA), with a maximum of 2500000 energy evaluations.

Final-Value: -0.835


	FINAL GENETIC ALGORITHM DOCKED STATE
	_______________________________________________


Detailed state:  trans -18.058 -14.243 -29.406 quatxyzw -0.932579 0.354193 0.060169 0.034978 center 38.166 -0.098 117.777 ntor 0
State:	-18.058 -14.243 -29.406  -0.933  0.354  0.060 175.991  

DOCKED: MODEL       37
DOCKED: USER    Run = 37
DOCKED: USER    DPF = atp_pocket.dpf
DOCKED: USER  
DOCKED: USER    Estimated Free Energy of Binding    =   -0.84 kcal/mol  [=(1)+(2)+(3)-(4)]
DOCKED: USER    Estimated Inhibition Constant, Ki   =  244.23 mM (millimolar)  [Temperature = 298.15 K]
DOCKED: USER    
DOCKED: USER    (1) Final Intermolecular Energy     =   -0.84 kcal/mol
DOCKED: USER        vdW + Hbond + desolv Energy     =   +0.94 kcal/mol
DOCKED: USER        Electrostatic Energy            =   -1.77 kcal/mol
DOCKED: USER    (2) Final Total Internal Energy     =   +0.00 kcal/mol
DOCKED: USER    (3) Torsional Free Energy           =   +0.00 kcal/mol
DOCKED: USER    (4) Unbound System's Energy  [=(2)] =   +0.00 kcal/mol
DOCKED: USER    
DOCKED: USER    
DOCKED: USER    NEWDPF move ../ligands/decavanadate.pdbqt
DOCKED: USER    NEWDPF about 38.166447 -0.097658 117.776763
DOCKED: USER    NEWDPF tran0 -18.057689 -14.242758 -29.405866
DOCKED: USER    NEWDPF quaternion0 -0.932579 0.354193 0.060169 0.034978
DOCKED: USER    NEWDPF axisangle0 -0.933150 0.354410 0.060205 175.990951
DOCKED: USER    NEWDPF quat0 -0.933150 0.354410 0.060205 175.990951
DOCKED: USER  keepresnum = 1 
DOCKED: USER  
DOCKED: USER                              x       y       z     vdW  Elec       q    Type
DOCKED: USER                           _______ _______ _______ _____ _____    ______ ____
DOCKED: ROOT
DOCKED: ATOM      1  O28 DVT A 531     -22.296 -16.396 -28.113 +0.03 -0.03    -0.750 OA
DOCKED: ATOM      2  V10 DVT A 531     -20.809 -15.866 -28.193 +0.08 +0.09    +1.500 Zn
DOCKED: ATOM      3  O18 DVT A 531     -20.660 -14.395 -27.079 +0.01 +0.02    -0.750 OA
DOCKED: ATOM      4  O15 DVT A 531     -19.899 -16.725 -26.841 +0.01 +0.01    -0.750 OA
DOCKED: ATOM      5  V1  DVT A 531     -18.102 -16.361 -26.729 +0.01 -0.07    +1.500 Zn
DOCKED: ATOM      6  O5  DVT A 531     -17.580 -17.224 -25.455 +0.00 +0.06    -0.750 OA
DOCKED: ATOM      7  O27 DVT A 531     -20.055 -17.127 -29.375 +0.03 -0.18    -0.750 OA
DOCKED: ATOM      8  V9  DVT A 531     -18.270 -16.914 -29.753 +0.10 +0.37    +1.500 Zn
DOCKED: ATOM      9  O2  DVT A 531     -18.634 -15.061 -28.559 +0.03 -0.04    -0.750 OA
DOCKED: ATOM     10  O4  DVT A 531     -17.735 -17.537 -28.151 +0.02 -0.01    -0.750 OA
DOCKED: ATOM     11  O8  DVT A 531     -16.566 -15.867 -29.910 +0.03 -0.08    -0.750 OA
DOCKED: ATOM     12  O26 DVT A 531     -18.060 -18.080 -30.836 -0.02 -0.34    -0.750 OA
DOCKED: ATOM     13  O24 DVT A 531     -18.785 -15.545 -31.142 +0.07 -0.47    -0.750 OA
DOCKED: ATOM     14  V7  DVT A 531     -16.889 -15.062 -31.677 +0.21 +0.66    +1.500 Zn
DOCKED: ATOM     15  O11 DVT A 531     -15.354 -14.157 -31.586 +0.06 -0.08    -0.750 OA
DOCKED: ATOM     16  O25 DVT A 531     -16.904 -16.276 -32.726 -0.31 -0.79    -0.750 OA
DOCKED: ATOM     17  O21 DVT A 531     -17.624 -13.800 -32.799 -0.00 -0.64    -0.750 OA
DOCKED: ATOM     18  V6  DVT A 531     -17.998 -12.103 -32.111 +0.24 +0.66    +1.500 Zn
DOCKED: ATOM     19  O19 DVT A 531     -18.514 -10.972 -30.701 +0.05 -0.04    -0.750 OA
DOCKED: ATOM     20  O22 DVT A 531     -18.482 -11.431 -33.483 -0.36 -0.84    -0.750 OA
DOCKED: ATOM     21  O6  DVT A 531     -16.207 -11.664 -31.978 +0.04 -0.17    -0.750 OA
DOCKED: ATOM     22  V8  DVT A 531     -19.495 -14.022 -30.236 +0.16 +0.32    +1.500 Zn
DOCKED: ATOM     23  O20 DVT A 531     -19.768 -12.985 -31.518 +0.06 -0.23    -0.750 OA
DOCKED: ATOM     24  O23 DVT A 531     -20.962 -14.732 -29.861 +0.04 -0.16    -0.750 OA
DOCKED: ATOM     25  O16 DVT A 531     -17.489 -13.418 -30.274 +0.05 -0.10    -0.750 OA
DOCKED: ATOM     26  V5  DVT A 531     -15.318 -12.553 -30.599 +0.10 +0.01    +1.500 Zn
DOCKED: ATOM     27  O14 DVT A 531     -13.792 -12.048 -30.672 +0.03 +0.07    -0.750 OA
DOCKED: ATOM     28  O7  DVT A 531     -15.127 -13.755 -28.974 +0.02 +0.05    -0.750 OA
DOCKED: ATOM     29  V2  DVT A 531     -16.628 -14.433 -28.576 +0.04 -0.02    +1.500 Zn
DOCKED: ATOM     30  O1  DVT A 531     -16.337 -15.427 -27.252 +0.01 +0.05    -0.750 OA
DOCKED: ATOM     31  O17 DVT A 531     -19.511 -12.694 -28.824 +0.03 -0.01    -0.750 OA
DOCKED: ATOM     32  V4  DVT A 531     -17.896 -11.561 -29.143 +0.05 -0.04    +1.500 Zn
DOCKED: ATOM     33  O13 DVT A 531     -16.127 -11.283 -29.445 +0.02 +0.04    -0.750 OA
DOCKED: ATOM     34  O12 DVT A 531     -18.150 -10.357 -28.105 +0.00 +0.07    -0.750 OA
DOCKED: ATOM     35  O9  DVT A 531     -17.340 -12.888 -27.771 +0.01 +0.04    -0.750 OA
DOCKED: ATOM     36  V3  DVT A 531     -19.109 -13.512 -27.055 +0.01 -0.07    +1.500 Zn
DOCKED: ATOM     37  O3  DVT A 531     -18.396 -14.716 -25.898 +0.00 +0.05    -0.750 OA
DOCKED: ATOM     38  O10 DVT A 531     -19.324 -12.278 -26.024 +0.00 +0.07    -0.750 OA
DOCKED: ENDROOT
DOCKED: TORSDOF 0
DOCKED: TER
DOCKED: ENDMDL
________________________________________________________________________________


	BEGINNING GENETIC ALGORITHM DOCKING 38 of 50
Run: 38 Seed: 1820317876 1591172460 [ Run 38 of 50 GA/GALS ]
Beginning LAMARCKIAN GENETIC ALGORITHM (LGA), with a maximum of 2500000 energy evaluations.

Final-Value: -0.669


	FINAL GENETIC ALGORITHM DOCKED STATE
	_______________________________________________


Detailed state:  trans -18.084 -18.250 -27.819 quatxyzw 0.558647 -0.034254 0.707843 -0.430927 center 38.166 -0.098 117.777 ntor 0
State:	-18.084 -18.250 -27.819   0.619 -0.038  0.784 -128.947  

DOCKED: MODEL       38
DOCKED: USER    Run = 38
DOCKED: USER    DPF = atp_pocket.dpf
DOCKED: USER  
DOCKED: USER    Estimated Free Energy of Binding    =   -0.67 kcal/mol  [=(1)+(2)+(3)-(4)]
DOCKED: USER    Estimated Inhibition Constant, Ki   =  323.56 mM (millimolar)  [Temperature = 298.15 K]
DOCKED: USER    
DOCKED: USER    (1) Final Intermolecular Energy     =   -0.67 kcal/mol
DOCKED: USER        vdW + Hbond + desolv Energy     =   +0.23 kcal/mol
DOCKED: USER        Electrostatic Energy            =   -0.90 kcal/mol
DOCKED: USER    (2) Final Total Internal Energy     =   +0.00 kcal/mol
DOCKED: USER    (3) Torsional Free Energy           =   +0.00 kcal/mol
DOCKED: USER    (4) Unbound System's Energy  [=(2)] =   +0.00 kcal/mol
DOCKED: USER    
DOCKED: USER    
DOCKED: USER    NEWDPF move ../ligands/decavanadate.pdbqt
DOCKED: USER    NEWDPF about 38.166447 -0.097658 117.776763
DOCKED: USER    NEWDPF tran0 -18.084393 -18.250297 -27.819300
DOCKED: USER    NEWDPF quaternion0 0.558647 -0.034254 0.707843 -0.430927
DOCKED: USER    NEWDPF axisangle0 0.619077 -0.037959 0.784412 -128.947206
DOCKED: USER    NEWDPF quat0 0.619077 -0.037959 0.784412 -128.947206
DOCKED: USER  keepresnum = 1 
DOCKED: USER  
DOCKED: USER                              x       y       z     vdW  Elec       q    Type
DOCKED: USER                           _______ _______ _______ _____ _____    ______ ____
DOCKED: ROOT
DOCKED: ATOM      1  O28 DVT A 531     -21.508 -21.786 -27.599 +0.01 +0.03    -0.750 OA
DOCKED: ATOM      2  V10 DVT A 531     -20.721 -20.416 -27.627 +0.02 -0.04    +1.500 Zn
DOCKED: ATOM      3  O18 DVT A 531     -20.900 -19.680 -29.316 +0.04 -0.07    -0.750 OA
DOCKED: ATOM      4  O15 DVT A 531     -21.948 -19.124 -27.158 +0.01 +0.01    -0.750 OA
DOCKED: ATOM      5  V1  DVT A 531     -21.298 -17.411 -27.030 +0.04 -0.01    +1.500 Zn
DOCKED: ATOM      6  O5  DVT A 531     -22.587 -16.504 -26.634 +0.01 +0.02    -0.750 OA
DOCKED: ATOM      7  O27 DVT A 531     -20.100 -20.337 -25.847 +0.00 +0.05    -0.750 OA
DOCKED: ATOM      8  V9  DVT A 531     -19.121 -18.850 -25.397 +0.00 -0.11    +1.500 Zn
DOCKED: ATOM      9  O2  DVT A 531     -19.349 -18.510 -27.593 +0.01 -0.00    -0.750 OA
DOCKED: ATOM     10  O4  DVT A 531     -20.563 -17.774 -25.337 +0.00 +0.05    -0.750 OA
DOCKED: ATOM     11  O8  DVT A 531     -17.958 -17.262 -25.788 +0.00 +0.05    -0.750 OA
DOCKED: ATOM     12  O26 DVT A 531     -18.710 -19.217 -23.889 +0.00 +0.07    -0.750 OA
DOCKED: ATOM     13  O24 DVT A 531     -17.498 -19.747 -26.191 +0.00 +0.06    -0.750 OA
DOCKED: ATOM     14  V7  DVT A 531     -16.228 -18.195 -25.884 +0.00 -0.14    +1.500 Zn
DOCKED: ATOM     15  O11 DVT A 531     -15.389 -16.675 -26.295 +0.00 +0.07    -0.750 OA
DOCKED: ATOM     16  O25 DVT A 531     -15.938 -18.758 -24.410 +0.00 +0.08    -0.750 OA
DOCKED: ATOM     17  O21 DVT A 531     -14.944 -19.194 -26.749 +0.00 +0.08    -0.750 OA
DOCKED: ATOM     18  V6  DVT A 531     -14.833 -19.085 -28.611 +0.01 -0.16    +1.500 Zn
DOCKED: ATOM     19  O19 DVT A 531     -15.626 -18.867 -30.302 +0.03 +0.03    -0.750 OA
DOCKED: ATOM     20  O22 DVT A 531     -13.541 -20.017 -28.791 +0.00 +0.11    -0.750 OA
DOCKED: ATOM     21  O6  DVT A 531     -14.167 -17.361 -28.560 +0.01 +0.09    -0.750 OA
DOCKED: ATOM     22  V8  DVT A 531     -17.754 -19.871 -28.078 +0.02 -0.06    +1.500 Zn
DOCKED: ATOM     23  O20 DVT A 531     -16.298 -20.538 -28.556 +0.01 +0.06    -0.750 OA
DOCKED: ATOM     24  O23 DVT A 531     -18.863 -21.121 -28.004 +0.01 +0.03    -0.750 OA
DOCKED: ATOM     25  O16 DVT A 531     -16.801 -18.005 -28.045 +0.01 +0.02    -0.750 OA
DOCKED: ATOM     26  V5  DVT A 531     -15.437 -16.081 -28.081 +0.02 -0.10    +1.500 Zn
DOCKED: ATOM     27  O14 DVT A 531     -14.654 -14.676 -28.079 +0.01 +0.07    -0.750 OA
DOCKED: ATOM     28  O7  DVT A 531     -17.279 -15.365 -27.617 +0.01 +0.02    -0.750 OA
DOCKED: ATOM     29  V2  DVT A 531     -18.403 -16.633 -27.590 +0.03 +0.00    +1.500 Zn
DOCKED: ATOM     30  O1  DVT A 531     -19.867 -15.928 -27.161 +0.01 +0.01    -0.750 OA
DOCKED: ATOM     31  O17 DVT A 531     -18.298 -19.179 -29.804 +0.03 -0.09    -0.750 OA
DOCKED: ATOM     32  V4  DVT A 531     -16.989 -17.730 -30.232 +0.09 +0.25    +1.500 Zn
DOCKED: ATOM     33  O13 DVT A 531     -16.048 -16.219 -29.873 +0.03 -0.04    -0.750 OA
DOCKED: ATOM     34  O12 DVT A 531     -17.360 -17.418 -31.767 -0.33 -0.65    -0.750 OA
DOCKED: ATOM     35  O9  DVT A 531     -18.566 -16.798 -29.457 +0.02 -0.15    -0.750 OA
DOCKED: ATOM     36  V3  DVT A 531     -20.012 -18.175 -29.676 +0.14 +0.39    +1.500 Zn
DOCKED: ATOM     37  O3  DVT A 531     -21.303 -17.176 -28.882 +0.04 -0.10    -0.750 OA
DOCKED: ATOM     38  O10 DVT A 531     -20.349 -17.827 -31.224 -0.12 -0.85    -0.750 OA
DOCKED: ENDROOT
DOCKED: TORSDOF 0
DOCKED: TER
DOCKED: ENDMDL
________________________________________________________________________________


	BEGINNING GENETIC ALGORITHM DOCKING 39 of 50
Run: 39 Seed: 1852327421 148866989 [ Run 39 of 50 GA/GALS ]
Beginning LAMARCKIAN GENETIC ALGORITHM (LGA), with a maximum of 2500000 energy evaluations.

Final-Value: -0.694


	FINAL GENETIC ALGORITHM DOCKED STATE
	_______________________________________________


Detailed state:  trans -18.694 -18.288 -27.698 quatxyzw 0.533294 -0.053542 0.714285 -0.450031 center 38.166 -0.098 117.777 ntor 0
State:	-18.694 -18.288 -27.698   0.597 -0.060  0.800 -126.509  

DOCKED: MODEL       39
DOCKED: USER    Run = 39
DOCKED: USER    DPF = atp_pocket.dpf
DOCKED: USER  
DOCKED: USER    Estimated Free Energy of Binding    =   -0.69 kcal/mol  [=(1)+(2)+(3)-(4)]
DOCKED: USER    Estimated Inhibition Constant, Ki   =  309.95 mM (millimolar)  [Temperature = 298.15 K]
DOCKED: USER    
DOCKED: USER    (1) Final Intermolecular Energy     =   -0.69 kcal/mol
DOCKED: USER        vdW + Hbond + desolv Energy     =   +0.22 kcal/mol
DOCKED: USER        Electrostatic Energy            =   -0.91 kcal/mol
DOCKED: USER    (2) Final Total Internal Energy     =   +0.00 kcal/mol
DOCKED: USER    (3) Torsional Free Energy           =   +0.00 kcal/mol
DOCKED: USER    (4) Unbound System's Energy  [=(2)] =   +0.00 kcal/mol
DOCKED: USER    
DOCKED: USER    
DOCKED: USER    NEWDPF move ../ligands/decavanadate.pdbqt
DOCKED: USER    NEWDPF about 38.166447 -0.097658 117.776763
DOCKED: USER    NEWDPF tran0 -18.694450 -18.288065 -27.697520
DOCKED: USER    NEWDPF quaternion0 0.533294 -0.053542 0.714285 -0.450031
DOCKED: USER    NEWDPF axisangle0 0.597185 -0.059956 0.799859 -126.508686
DOCKED: USER    NEWDPF quat0 0.597185 -0.059956 0.799859 -126.508686
DOCKED: USER  keepresnum = 1 
DOCKED: USER  
DOCKED: USER                              x       y       z     vdW  Elec       q    Type
DOCKED: USER                           _______ _______ _______ _____ _____    ______ ____
DOCKED: ROOT
DOCKED: ATOM      1  O28 DVT A 531     -22.282 -21.664 -27.625 +0.01 +0.03    -0.750 OA
DOCKED: ATOM      2  V10 DVT A 531     -21.433 -20.331 -27.628 +0.03 -0.03    +1.500 Zn
DOCKED: ATOM      3  O18 DVT A 531     -21.480 -19.618 -29.335 +0.05 -0.07    -0.750 OA
DOCKED: ATOM      4  O15 DVT A 531     -22.626 -18.978 -27.251 +0.02 +0.01    -0.750 OA
DOCKED: ATOM      5  V1  DVT A 531     -21.907 -17.294 -27.111 +0.05 -0.01    +1.500 Zn
DOCKED: ATOM      6  O5  DVT A 531     -23.175 -16.324 -26.805 +0.01 +0.02    -0.750 OA
DOCKED: ATOM      7  O27 DVT A 531     -20.913 -20.249 -25.816 +0.00 +0.05    -0.750 OA
DOCKED: ATOM      8  V9  DVT A 531     -19.896 -18.799 -25.332 +0.00 -0.10    +1.500 Zn
DOCKED: ATOM      9  O2  DVT A 531     -19.981 -18.488 -27.542 +0.01 -0.00    -0.750 OA
DOCKED: ATOM     10  O4  DVT A 531     -21.289 -17.659 -25.373 +0.00 +0.05    -0.750 OA
DOCKED: ATOM     11  O8  DVT A 531     -18.641 -17.271 -25.678 +0.00 +0.05    -0.750 OA
DOCKED: ATOM     12  O26 DVT A 531     -19.590 -19.156 -23.797 +0.00 +0.07    -0.750 OA
DOCKED: ATOM     13  O24 DVT A 531     -18.272 -19.781 -26.015 +0.00 +0.05    -0.750 OA
DOCKED: ATOM     14  V7  DVT A 531     -16.952 -18.281 -25.658 +0.00 -0.13    +1.500 Zn
DOCKED: ATOM     15  O11 DVT A 531     -16.024 -16.807 -26.041 +0.00 +0.07    -0.750 OA
DOCKED: ATOM     16  O25 DVT A 531     -16.775 -18.830 -24.161 +0.00 +0.07    -0.750 OA
DOCKED: ATOM     17  O21 DVT A 531     -15.667 -19.351 -26.430 +0.00 +0.07    -0.750 OA
DOCKED: ATOM     18  V6  DVT A 531     -15.443 -19.280 -28.285 +0.01 -0.14    +1.500 Zn
DOCKED: ATOM     19  O19 DVT A 531     -16.127 -19.057 -30.022 +0.02 +0.01    -0.750 OA
DOCKED: ATOM     20  O22 DVT A 531     -14.187 -20.271 -28.374 +0.00 +0.10    -0.750 OA
DOCKED: ATOM     21  O6  DVT A 531     -14.704 -17.587 -28.220 +0.01 +0.08    -0.750 OA
DOCKED: ATOM     22  V8  DVT A 531     -18.423 -19.926 -27.912 +0.02 -0.04    +1.500 Zn
DOCKED: ATOM     23  O20 DVT A 531     -16.974 -20.665 -28.294 +0.01 +0.05    -0.750 OA
DOCKED: ATOM     24  O23 DVT A 531     -19.590 -21.124 -27.885 +0.01 +0.03    -0.750 OA
DOCKED: ATOM     25  O16 DVT A 531     -17.390 -18.104 -27.851 +0.01 +0.02    -0.750 OA
DOCKED: ATOM     26  V5  DVT A 531     -15.941 -16.243 -27.836 +0.02 -0.09    +1.500 Zn
DOCKED: ATOM     27  O14 DVT A 531     -15.096 -14.874 -27.809 +0.01 +0.06    -0.750 OA
DOCKED: ATOM     28  O7  DVT A 531     -17.773 -15.438 -27.491 +0.01 +0.02    -0.750 OA
DOCKED: ATOM     29  V2  DVT A 531     -18.952 -16.654 -27.511 +0.03 +0.01    +1.500 Zn
DOCKED: ATOM     30  O1  DVT A 531     -20.405 -15.878 -27.180 +0.02 +0.00    -0.750 OA
DOCKED: ATOM     31  O17 DVT A 531     -18.834 -19.241 -29.677 +0.03 -0.10    -0.750 OA
DOCKED: ATOM     32  V4  DVT A 531     -17.439 -17.859 -30.049 +0.09 +0.28    +1.500 Zn
DOCKED: ATOM     33  O13 DVT A 531     -16.453 -16.386 -29.658 +0.03 -0.05    -0.750 OA
DOCKED: ATOM     34  O12 DVT A 531     -17.705 -17.558 -31.607 -0.16 -0.68    -0.750 OA
DOCKED: ATOM     35  O9  DVT A 531     -19.014 -16.845 -29.383 +0.03 -0.16    -0.750 OA
DOCKED: ATOM     36  V3  DVT A 531     -20.506 -18.160 -29.665 +0.16 +0.38    +1.500 Zn
DOCKED: ATOM     37  O3  DVT A 531     -21.794 -17.091 -28.964 +0.04 -0.10    -0.750 OA
DOCKED: ATOM     38  O10 DVT A 531     -20.736 -17.825 -31.236 -0.35 -0.80    -0.750 OA
DOCKED: ENDROOT
DOCKED: TORSDOF 0
DOCKED: TER
DOCKED: ENDMDL
________________________________________________________________________________


	BEGINNING GENETIC ALGORITHM DOCKING 40 of 50
Run: 40 Seed: 41892928 73837571 [ Run 40 of 50 GA/GALS ]
Beginning LAMARCKIAN GENETIC ALGORITHM (LGA), with a maximum of 2500000 energy evaluations.

Final-Value: -0.691


	FINAL GENETIC ALGORITHM DOCKED STATE
	_______________________________________________


Detailed state:  trans -18.692 -18.336 -27.700 quatxyzw 0.534998 -0.058397 0.709303 -0.455254 center 38.166 -0.098 117.777 ntor 0
State:	-18.692 -18.336 -27.700   0.601 -0.066  0.797 -125.837  

DOCKED: MODEL       40
DOCKED: USER    Run = 40
DOCKED: USER    DPF = atp_pocket.dpf
DOCKED: USER  
DOCKED: USER    Estimated Free Energy of Binding    =   -0.69 kcal/mol  [=(1)+(2)+(3)-(4)]
DOCKED: USER    Estimated Inhibition Constant, Ki   =  311.69 mM (millimolar)  [Temperature = 298.15 K]
DOCKED: USER    
DOCKED: USER    (1) Final Intermolecular Energy     =   -0.69 kcal/mol
DOCKED: USER        vdW + Hbond + desolv Energy     =   +0.21 kcal/mol
DOCKED: USER        Electrostatic Energy            =   -0.90 kcal/mol
DOCKED: USER    (2) Final Total Internal Energy     =   +0.00 kcal/mol
DOCKED: USER    (3) Torsional Free Energy           =   +0.00 kcal/mol
DOCKED: USER    (4) Unbound System's Energy  [=(2)] =   +0.00 kcal/mol
DOCKED: USER    
DOCKED: USER    
DOCKED: USER    NEWDPF move ../ligands/decavanadate.pdbqt
DOCKED: USER    NEWDPF about 38.166447 -0.097658 117.776763
DOCKED: USER    NEWDPF tran0 -18.692153 -18.335788 -27.700311
DOCKED: USER    NEWDPF quaternion0 0.534998 -0.058397 0.709303 -0.455254
DOCKED: USER    NEWDPF axisangle0 0.600877 -0.065588 0.796646 -125.837492
DOCKED: USER    NEWDPF quat0 0.600877 -0.065588 0.796646 -125.837492
DOCKED: USER  keepresnum = 1 
DOCKED: USER  
DOCKED: USER                              x       y       z     vdW  Elec       q    Type
DOCKED: USER                           _______ _______ _______ _____ _____    ______ ____
DOCKED: ROOT
DOCKED: ATOM      1  O28 DVT A 531     -22.336 -21.651 -27.625 +0.01 +0.03    -0.750 OA
DOCKED: ATOM      2  V10 DVT A 531     -21.464 -20.332 -27.627 +0.03 -0.03    +1.500 Zn
DOCKED: ATOM      3  O18 DVT A 531     -21.506 -19.612 -29.331 +0.05 -0.07    -0.750 OA
DOCKED: ATOM      4  O15 DVT A 531     -22.633 -18.960 -27.240 +0.02 +0.01    -0.750 OA
DOCKED: ATOM      5  V1  DVT A 531     -21.885 -17.289 -27.098 +0.05 -0.01    +1.500 Zn
DOCKED: ATOM      6  O5  DVT A 531     -23.135 -16.299 -26.784 +0.01 +0.02    -0.750 OA
DOCKED: ATOM      7  O27 DVT A 531     -20.936 -20.265 -25.817 +0.00 +0.05    -0.750 OA
DOCKED: ATOM      8  V9  DVT A 531     -19.893 -18.834 -25.332 +0.00 -0.10    +1.500 Zn
DOCKED: ATOM      9  O2  DVT A 531     -19.981 -18.514 -27.541 +0.01 -0.00    -0.750 OA
DOCKED: ATOM     10  O4  DVT A 531     -21.267 -17.671 -25.363 +0.00 +0.05    -0.750 OA
DOCKED: ATOM     11  O8  DVT A 531     -18.614 -17.327 -25.677 +0.00 +0.05    -0.750 OA
DOCKED: ATOM     12  O26 DVT A 531     -19.587 -19.202 -23.799 +0.00 +0.07    -0.750 OA
DOCKED: ATOM     13  O24 DVT A 531     -18.288 -19.841 -26.024 +0.00 +0.05    -0.750 OA
DOCKED: ATOM     14  V7  DVT A 531     -16.942 -18.366 -25.668 +0.00 -0.13    +1.500 Zn
DOCKED: ATOM     15  O11 DVT A 531     -15.990 -16.905 -26.050 +0.00 +0.07    -0.750 OA
DOCKED: ATOM     16  O25 DVT A 531     -16.768 -18.922 -24.173 +0.00 +0.07    -0.750 OA
DOCKED: ATOM     17  O21 DVT A 531     -15.678 -19.454 -26.449 +0.00 +0.07    -0.750 OA
DOCKED: ATOM     18  V6  DVT A 531     -15.461 -19.380 -28.304 +0.01 -0.14    +1.500 Zn
DOCKED: ATOM     19  O19 DVT A 531     -16.147 -19.140 -30.038 +0.02 +0.01    -0.750 OA
DOCKED: ATOM     20  O22 DVT A 531     -14.221 -20.392 -28.402 +0.00 +0.10    -0.750 OA
DOCKED: ATOM     21  O6  DVT A 531     -14.693 -17.700 -28.236 +0.01 +0.08    -0.750 OA
DOCKED: ATOM     22  V8  DVT A 531     -18.449 -19.978 -27.921 +0.02 -0.05    +1.500 Zn
DOCKED: ATOM     23  O20 DVT A 531     -17.014 -20.740 -28.311 +0.01 +0.05    -0.750 OA
DOCKED: ATOM     24  O23 DVT A 531     -19.637 -21.156 -27.893 +0.01 +0.03    -0.750 OA
DOCKED: ATOM     25  O16 DVT A 531     -17.385 -18.173 -27.858 +0.01 +0.02    -0.750 OA
DOCKED: ATOM     26  V5  DVT A 531     -15.905 -16.337 -27.843 +0.02 -0.09    +1.500 Zn
DOCKED: ATOM     27  O14 DVT A 531     -15.037 -14.983 -27.815 +0.01 +0.06    -0.750 OA
DOCKED: ATOM     28  O7  DVT A 531     -17.722 -15.502 -27.488 +0.01 +0.02    -0.750 OA
DOCKED: ATOM     29  V2  DVT A 531     -18.921 -16.699 -27.508 +0.03 +0.01    +1.500 Zn
DOCKED: ATOM     30  O1  DVT A 531     -20.360 -15.899 -27.168 +0.02 +0.00    -0.750 OA
DOCKED: ATOM     31  O17 DVT A 531     -18.856 -19.280 -29.683 +0.03 -0.10    -0.750 OA
DOCKED: ATOM     32  V4  DVT A 531     -17.439 -17.920 -30.055 +0.09 +0.28    +1.500 Zn
DOCKED: ATOM     33  O13 DVT A 531     -16.426 -16.465 -29.663 +0.03 -0.05    -0.750 OA
DOCKED: ATOM     34  O12 DVT A 531     -17.706 -17.609 -31.612 -0.17 -0.67    -0.750 OA
DOCKED: ATOM     35  O9  DVT A 531     -18.994 -16.882 -29.379 +0.03 -0.16    -0.750 OA
DOCKED: ATOM     36  V3  DVT A 531     -20.509 -18.170 -29.660 +0.16 +0.38    +1.500 Zn
DOCKED: ATOM     37  O3  DVT A 531     -21.776 -17.082 -28.950 +0.04 -0.10    -0.750 OA
DOCKED: ATOM     38  O10 DVT A 531     -20.739 -17.826 -31.229 -0.36 -0.79    -0.750 OA
DOCKED: ENDROOT
DOCKED: TORSDOF 0
DOCKED: TER
DOCKED: ENDMDL
________________________________________________________________________________


	BEGINNING GENETIC ALGORITHM DOCKING 41 of 50
Run: 41 Seed: 201323938 165379496 [ Run 41 of 50 GA/GALS ]
Beginning LAMARCKIAN GENETIC ALGORITHM (LGA), with a maximum of 2500000 energy evaluations.

Final-Value: -0.867


	FINAL GENETIC ALGORITHM DOCKED STATE
	_______________________________________________


Detailed state:  trans -17.330 -15.747 -29.541 quatxyzw -0.165838 -0.745690 0.541517 -0.351005 center 38.166 -0.098 117.777 ntor 0
State:	-17.330 -15.747 -29.541  -0.177 -0.796  0.578 -138.902  

DOCKED: MODEL       41
DOCKED: USER    Run = 41
DOCKED: USER    DPF = atp_pocket.dpf
DOCKED: USER  
DOCKED: USER    Estimated Free Energy of Binding    =   -0.87 kcal/mol  [=(1)+(2)+(3)-(4)]
DOCKED: USER    Estimated Inhibition Constant, Ki   =  231.50 mM (millimolar)  [Temperature = 298.15 K]
DOCKED: USER    
DOCKED: USER    (1) Final Intermolecular Energy     =   -0.87 kcal/mol
DOCKED: USER        vdW + Hbond + desolv Energy     =   +0.70 kcal/mol
DOCKED: USER        Electrostatic Energy            =   -1.57 kcal/mol
DOCKED: USER    (2) Final Total Internal Energy     =   +0.00 kcal/mol
DOCKED: USER    (3) Torsional Free Energy           =   +0.00 kcal/mol
DOCKED: USER    (4) Unbound System's Energy  [=(2)] =   +0.00 kcal/mol
DOCKED: USER    
DOCKED: USER    
DOCKED: USER    NEWDPF move ../ligands/decavanadate.pdbqt
DOCKED: USER    NEWDPF about 38.166447 -0.097658 117.776763
DOCKED: USER    NEWDPF tran0 -17.330034 -15.746787 -29.540701
DOCKED: USER    NEWDPF quaternion0 -0.165838 -0.745690 0.541517 -0.351005
DOCKED: USER    NEWDPF axisangle0 -0.177106 -0.796359 0.578313 -138.902412
DOCKED: USER    NEWDPF quat0 -0.177106 -0.796359 0.578313 -138.902412
DOCKED: USER  keepresnum = 1 
DOCKED: USER  
DOCKED: USER                              x       y       z     vdW  Elec       q    Type
DOCKED: USER                           _______ _______ _______ _____ _____    ______ ____
DOCKED: ROOT
DOCKED: ATOM      1  O28 DVT A 531     -16.199 -14.818 -34.245 -0.60 -0.93    -0.750 OA
DOCKED: ATOM      2  V10 DVT A 531     -16.448 -14.744 -32.686 +0.29 +0.91    +1.500 Zn
DOCKED: ATOM      3  O18 DVT A 531     -14.818 -14.935 -31.830 +0.06 +0.00    -0.750 OA
DOCKED: ATOM      4  O15 DVT A 531     -16.247 -12.969 -32.232 +0.04 -0.30    -0.750 OA
DOCKED: ATOM      5  V1  DVT A 531     -16.554 -12.555 -30.470 +0.10 +0.11    +1.500 Zn
DOCKED: ATOM      6  O5  DVT A 531     -16.282 -10.956 -30.364 +0.03 +0.01    -0.750 OA
DOCKED: ATOM      7  O27 DVT A 531     -18.310 -14.445 -32.647 +0.06 -0.67    -0.750 OA
DOCKED: ATOM      8  V9  DVT A 531     -19.065 -14.260 -30.984 +0.21 +0.56    +1.500 Zn
DOCKED: ATOM      9  O2  DVT A 531     -16.982 -14.821 -30.401 +0.04 -0.13    -0.750 OA
DOCKED: ATOM     10  O4  DVT A 531     -18.414 -12.598 -30.743 +0.05 -0.13    -0.750 OA
DOCKED: ATOM     11  O8  DVT A 531     -19.145 -14.512 -28.994 +0.03 -0.07    -0.750 OA
DOCKED: ATOM     12  O26 DVT A 531     -20.616 -14.135 -31.379 +0.03 -0.31    -0.750 OA
DOCKED: ATOM     13  O24 DVT A 531     -19.131 -16.272 -30.852 +0.08 -0.51    -0.750 OA
DOCKED: ATOM     14  V7  DVT A 531     -19.884 -16.336 -28.969 +0.10 +0.23    +1.500 Zn
DOCKED: ATOM     15  O11 DVT A 531     -19.805 -16.383 -27.187 +0.01 +0.00    -0.750 OA
DOCKED: ATOM     16  O25 DVT A 531     -21.361 -16.231 -29.585 +0.03 -0.18    -0.750 OA
DOCKED: ATOM     17  O21 DVT A 531     -19.740 -18.170 -29.072 +0.03 -0.11    -0.750 OA
DOCKED: ATOM     18  V6  DVT A 531     -18.120 -18.967 -28.590 +0.04 +0.03    +1.500 Zn
DOCKED: ATOM     19  O19 DVT A 531     -16.244 -18.950 -28.470 +0.01 +0.04    -0.750 OA
DOCKED: ATOM     20  O22 DVT A 531     -18.588 -20.491 -28.754 +0.02 +0.01    -0.750 OA
DOCKED: ATOM     21  O6  DVT A 531     -18.366 -18.590 -26.797 +0.01 +0.03    -0.750 OA
DOCKED: ATOM     22  V8  DVT A 531     -17.338 -16.917 -30.739 +0.13 +0.57    +1.500 Zn
DOCKED: ATOM     23  O20 DVT A 531     -17.598 -18.556 -30.544 +0.01 -0.18    -0.750 OA
DOCKED: ATOM     24  O23 DVT A 531     -16.979 -16.667 -32.353 -0.41 -0.74    -0.750 OA
DOCKED: ATOM     25  O16 DVT A 531     -17.688 -16.694 -28.685 +0.02 -0.04    -0.750 OA
DOCKED: ATOM     26  V5  DVT A 531     -18.155 -16.785 -26.374 +0.01 -0.08    +1.500 Zn
DOCKED: ATOM     27  O14 DVT A 531     -18.427 -16.677 -24.792 +0.00 +0.06    -0.750 OA
DOCKED: ATOM     28  O7  DVT A 531     -17.707 -14.832 -26.706 +0.00 +0.04    -0.750 OA
DOCKED: ATOM     29  V2  DVT A 531     -17.302 -14.600 -28.334 +0.04 -0.00    +1.500 Zn
DOCKED: ATOM     30  O1  DVT A 531     -16.992 -12.956 -28.492 +0.02 +0.02    -0.750 OA
DOCKED: ATOM     31  O17 DVT A 531     -15.514 -16.867 -30.085 +0.03 +0.00    -0.750 OA
DOCKED: ATOM     32  V4  DVT A 531     -15.635 -17.314 -28.141 +0.02 -0.10    +1.500 Zn
DOCKED: ATOM     33  O13 DVT A 531     -16.290 -17.127 -26.458 +0.00 +0.06    -0.750 OA
DOCKED: ATOM     34  O12 DVT A 531     -14.081 -17.508 -27.769 +0.00 +0.09    -0.750 OA
DOCKED: ATOM     35  O9  DVT A 531     -15.570 -15.328 -28.217 +0.01 +0.05    -0.750 OA
DOCKED: ATOM     36  V3  DVT A 531     -14.808 -15.006 -30.047 +0.08 -0.08    +1.500 Zn
DOCKED: ATOM     37  O3  DVT A 531     -14.884 -13.196 -29.935 +0.03 +0.04    -0.750 OA
DOCKED: ATOM     38  O10 DVT A 531     -13.255 -15.213 -29.626 +0.02 +0.11    -0.750 OA
DOCKED: ENDROOT
DOCKED: TORSDOF 0
DOCKED: TER
DOCKED: ENDMDL
________________________________________________________________________________


	BEGINNING GENETIC ALGORITHM DOCKING 42 of 50
Run: 42 Seed: 2144964852 2074636102 [ Run 42 of 50 GA/GALS ]
Beginning LAMARCKIAN GENETIC ALGORITHM (LGA), with a maximum of 2500000 energy evaluations.

Final-Value: -0.690


	FINAL GENETIC ALGORITHM DOCKED STATE
	_______________________________________________


Detailed state:  trans -18.694 -18.371 -27.709 quatxyzw -0.539303 0.061857 -0.714955 0.440642 center 38.166 -0.098 117.777 ntor 0
State:	-18.694 -18.371 -27.709  -0.601  0.069 -0.796 127.710  

DOCKED: MODEL       42
DOCKED: USER    Run = 42
DOCKED: USER    DPF = atp_pocket.dpf
DOCKED: USER  
DOCKED: USER    Estimated Free Energy of Binding    =   -0.69 kcal/mol  [=(1)+(2)+(3)-(4)]
DOCKED: USER    Estimated Inhibition Constant, Ki   =  312.05 mM (millimolar)  [Temperature = 298.15 K]
DOCKED: USER    
DOCKED: USER    (1) Final Intermolecular Energy     =   -0.69 kcal/mol
DOCKED: USER        vdW + Hbond + desolv Energy     =   +0.22 kcal/mol
DOCKED: USER        Electrostatic Energy            =   -0.91 kcal/mol
DOCKED: USER    (2) Final Total Internal Energy     =   +0.00 kcal/mol
DOCKED: USER    (3) Torsional Free Energy           =   +0.00 kcal/mol
DOCKED: USER    (4) Unbound System's Energy  [=(2)] =   +0.00 kcal/mol
DOCKED: USER    
DOCKED: USER    
DOCKED: USER    NEWDPF move ../ligands/decavanadate.pdbqt
DOCKED: USER    NEWDPF about 38.166447 -0.097658 117.776763
DOCKED: USER    NEWDPF tran0 -18.694161 -18.371350 -27.708880
DOCKED: USER    NEWDPF quaternion0 -0.539303 0.061857 -0.714955 0.440642
DOCKED: USER    NEWDPF axisangle0 -0.600773 0.068908 -0.796444 127.710298
DOCKED: USER    NEWDPF quat0 -0.600773 0.068908 -0.796444 127.710298
DOCKED: USER  keepresnum = 1 
DOCKED: USER  
DOCKED: USER                              x       y       z     vdW  Elec       q    Type
DOCKED: USER                           _______ _______ _______ _____ _____    ______ ____
DOCKED: ROOT
DOCKED: ATOM      1  O28 DVT A 531     -22.262 -21.769 -27.731 +0.01 +0.03    -0.750 OA
DOCKED: ATOM      2  V10 DVT A 531     -21.421 -20.431 -27.697 +0.03 -0.03    +1.500 Zn
DOCKED: ATOM      3  O18 DVT A 531     -21.471 -19.672 -29.384 +0.05 -0.07    -0.750 OA
DOCKED: ATOM      4  O15 DVT A 531     -22.622 -19.096 -27.284 +0.02 +0.01    -0.750 OA
DOCKED: ATOM      5  V1  DVT A 531     -21.913 -17.412 -27.098 +0.05 -0.01    +1.500 Zn
DOCKED: ATOM      6  O5  DVT A 531     -23.186 -16.458 -26.767 +0.01 +0.02    -0.750 OA
DOCKED: ATOM      7  O27 DVT A 531     -20.903 -20.395 -25.883 +0.00 +0.05    -0.750 OA
DOCKED: ATOM      8  V9  DVT A 531     -19.894 -18.953 -25.359 +0.00 -0.10    +1.500 Zn
DOCKED: ATOM      9  O2  DVT A 531     -19.979 -18.583 -27.560 +0.01 -0.00    -0.750 OA
DOCKED: ATOM     10  O4  DVT A 531     -21.294 -17.821 -25.370 +0.00 +0.05    -0.750 OA
DOCKED: ATOM     11  O8  DVT A 531     -18.648 -17.409 -25.662 +0.00 +0.05    -0.750 OA
DOCKED: ATOM     12  O26 DVT A 531     -19.587 -19.351 -23.834 +0.00 +0.07    -0.750 OA
DOCKED: ATOM     13  O24 DVT A 531     -18.264 -19.907 -26.067 +0.00 +0.05    -0.750 OA
DOCKED: ATOM     14  V7  DVT A 531     -16.953 -18.410 -25.669 +0.00 -0.13    +1.500 Zn
DOCKED: ATOM     15  O11 DVT A 531     -16.033 -16.920 -26.011 +0.00 +0.07    -0.750 OA
DOCKED: ATOM     16  O25 DVT A 531     -16.773 -18.998 -24.187 +0.00 +0.07    -0.750 OA
DOCKED: ATOM     17  O21 DVT A 531     -15.661 -19.451 -26.469 +0.00 +0.07    -0.750 OA
DOCKED: ATOM     18  V6  DVT A 531     -15.437 -19.328 -28.320 +0.01 -0.14    +1.500 Zn
DOCKED: ATOM     19  O19 DVT A 531     -16.121 -19.062 -30.052 +0.02 +0.01    -0.750 OA
DOCKED: ATOM     20  O22 DVT A 531     -14.175 -20.309 -28.436 +0.00 +0.10    -0.750 OA
DOCKED: ATOM     21  O6  DVT A 531     -14.708 -17.633 -28.209 +0.01 +0.08    -0.750 OA
DOCKED: ATOM     22  V8  DVT A 531     -18.413 -20.002 -27.968 +0.02 -0.04    +1.500 Zn
DOCKED: ATOM     23  O20 DVT A 531     -16.959 -20.721 -28.368 +0.01 +0.05    -0.750 OA
DOCKED: ATOM     24  O23 DVT A 531     -19.574 -21.206 -27.974 +0.01 +0.03    -0.750 OA
DOCKED: ATOM     25  O16 DVT A 531     -17.391 -18.176 -27.856 +0.01 +0.02    -0.750 OA
DOCKED: ATOM     26  V5  DVT A 531     -15.952 -16.308 -27.790 +0.02 -0.09    +1.500 Zn
DOCKED: ATOM     27  O14 DVT A 531     -15.116 -14.935 -27.725 +0.01 +0.06    -0.750 OA
DOCKED: ATOM     28  O7  DVT A 531     -17.789 -15.522 -27.425 +0.01 +0.02    -0.750 OA
DOCKED: ATOM     29  V2  DVT A 531     -18.961 -16.745 -27.479 +0.03 +0.00    +1.500 Zn
DOCKED: ATOM     30  O1  DVT A 531     -20.419 -15.987 -27.127 +0.02 +0.01    -0.750 OA
DOCKED: ATOM     31  O17 DVT A 531     -18.827 -19.271 -29.714 +0.03 -0.10    -0.750 OA
DOCKED: ATOM     32  V4  DVT A 531     -17.440 -17.872 -30.047 +0.09 +0.28    +1.500 Zn
DOCKED: ATOM     33  O13 DVT A 531     -16.462 -16.403 -29.615 +0.03 -0.05    -0.750 OA
DOCKED: ATOM     34  O12 DVT A 531     -17.707 -17.529 -31.597 -0.16 -0.68    -0.750 OA
DOCKED: ATOM     35  O9  DVT A 531     -19.021 -16.885 -29.354 +0.03 -0.15    -0.750 OA
DOCKED: ATOM     36  V3  DVT A 531     -20.505 -18.200 -29.673 +0.16 +0.38    +1.500 Zn
DOCKED: ATOM     37  O3  DVT A 531     -21.800 -17.158 -28.944 +0.04 -0.10    -0.750 OA
DOCKED: ATOM     38  O10 DVT A 531     -20.736 -17.824 -31.234 -0.35 -0.80    -0.750 OA
DOCKED: ENDROOT
DOCKED: TORSDOF 0
DOCKED: TER
DOCKED: ENDMDL
________________________________________________________________________________


	BEGINNING GENETIC ALGORITHM DOCKING 43 of 50
Run: 43 Seed: 666442361 1544894947 [ Run 43 of 50 GA/GALS ]
Beginning LAMARCKIAN GENETIC ALGORITHM (LGA), with a maximum of 2500000 energy evaluations.

Final-Value: -0.807


	FINAL GENETIC ALGORITHM DOCKED STATE
	_______________________________________________


Detailed state:  trans -17.474 -13.708 -28.700 quatxyzw -0.541549 0.134166 -0.192335 -0.807299 center 38.166 -0.098 117.777 ntor 0
State:	-17.474 -13.708 -28.700  -0.918  0.227 -0.326 -72.334  

DOCKED: MODEL       43
DOCKED: USER    Run = 43
DOCKED: USER    DPF = atp_pocket.dpf
DOCKED: USER  
DOCKED: USER    Estimated Free Energy of Binding    =   -0.81 kcal/mol  [=(1)+(2)+(3)-(4)]
DOCKED: USER    Estimated Inhibition Constant, Ki   =  256.05 mM (millimolar)  [Temperature = 298.15 K]
DOCKED: USER    
DOCKED: USER    (1) Final Intermolecular Energy     =   -0.81 kcal/mol
DOCKED: USER        vdW + Hbond + desolv Energy     =   +0.44 kcal/mol
DOCKED: USER        Electrostatic Energy            =   -1.25 kcal/mol
DOCKED: USER    (2) Final Total Internal Energy     =   +0.00 kcal/mol
DOCKED: USER    (3) Torsional Free Energy           =   +0.00 kcal/mol
DOCKED: USER    (4) Unbound System's Energy  [=(2)] =   +0.00 kcal/mol
DOCKED: USER    
DOCKED: USER    
DOCKED: USER    NEWDPF move ../ligands/decavanadate.pdbqt
DOCKED: USER    NEWDPF about 38.166447 -0.097658 117.776763
DOCKED: USER    NEWDPF tran0 -17.473868 -13.707742 -28.699856
DOCKED: USER    NEWDPF quaternion0 -0.541549 0.134166 -0.192335 -0.807299
DOCKED: USER    NEWDPF axisangle0 -0.917657 0.227344 -0.325913 -72.334331
DOCKED: USER    NEWDPF quat0 -0.917657 0.227344 -0.325913 -72.334331
DOCKED: USER  keepresnum = 1 
DOCKED: USER  
DOCKED: USER                              x       y       z     vdW  Elec       q    Type
DOCKED: USER                           _______ _______ _______ _____ _____    ______ ____
DOCKED: ROOT
DOCKED: ATOM      1  O28 DVT A 531     -18.627 -11.873 -33.125 -0.36 -0.65    -0.750 OA
DOCKED: ATOM      2  V10 DVT A 531     -18.239 -12.800 -31.904 +0.24 +0.65    +1.500 Zn
DOCKED: ATOM      3  O18 DVT A 531     -19.767 -13.678 -31.336 +0.04 -0.27    -0.750 OA
DOCKED: ATOM      4  O15 DVT A 531     -17.817 -14.438 -32.634 +0.01 -0.64    -0.750 OA
DOCKED: ATOM      5  V1  DVT A 531     -17.247 -15.720 -31.449 +0.17 +0.80    +1.500 Zn
DOCKED: ATOM      6  O5  DVT A 531     -16.978 -17.039 -32.358 -0.48 -0.75    -0.750 OA
DOCKED: ATOM      7  O27 DVT A 531     -16.384 -12.475 -31.798 +0.04 -0.20    -0.750 OA
DOCKED: ATOM      8  V9  DVT A 531     -15.476 -13.391 -30.492 +0.10 +0.04    +1.500 Zn
DOCKED: ATOM      9  O2  DVT A 531     -17.572 -13.970 -29.980 +0.04 -0.10    -0.750 OA
DOCKED: ATOM     10  O4  DVT A 531     -15.531 -14.954 -31.384 +0.05 -0.08    -0.750 OA
DOCKED: ATOM     11  O8  DVT A 531     -15.318 -14.391 -28.759 +0.02 +0.04    -0.750 OA
DOCKED: ATOM     12  O26 DVT A 531     -14.006 -12.769 -30.667 +0.04 +0.06    -0.750 OA
DOCKED: ATOM     13  O24 DVT A 531     -16.055 -11.976 -29.175 +0.02 +0.03    -0.750 OA
DOCKED: ATOM     14  V7  DVT A 531     -15.211 -12.844 -27.547 +0.00 -0.14    +1.500 Zn
DOCKED: ATOM     15  O11 DVT A 531     -15.153 -13.918 -26.123 +0.00 +0.08    -0.750 OA
DOCKED: ATOM     16  O25 DVT A 531     -13.835 -12.096 -27.895 +0.00 +0.09    -0.750 OA
DOCKED: ATOM     17  O21 DVT A 531     -15.949 -11.481 -26.552 +0.00 +0.08    -0.750 OA
DOCKED: ATOM     18  V6  DVT A 531     -17.694 -11.684 -25.915 +0.00 -0.15    +1.500 Zn
DOCKED: ATOM     19  O19 DVT A 531     -19.447 -12.342 -26.087 +0.00 +0.06    -0.750 OA
DOCKED: ATOM     20  O22 DVT A 531     -17.760 -10.324 -25.070 +0.00 +0.09    -0.750 OA
DOCKED: ATOM     21  O6  DVT A 531     -17.192 -12.976 -24.691 +0.00 +0.08    -0.750 OA
DOCKED: ATOM     22  V8  DVT A 531     -17.944 -12.120 -28.945 +0.04 -0.02    +1.500 Zn
DOCKED: ATOM     23  O20 DVT A 531     -18.214 -10.957 -27.776 +0.00 +0.06    -0.750 OA
DOCKED: ATOM     24  O23 DVT A 531     -18.334 -11.431 -30.419 +0.04 -0.04    -0.750 OA
DOCKED: ATOM     25  O16 DVT A 531     -17.373 -13.425 -27.408 +0.01 +0.04    -0.750 OA
DOCKED: ATOM     26  V5  DVT A 531     -16.772 -14.620 -25.466 +0.00 -0.14    +1.500 Zn
DOCKED: ATOM     27  O14 DVT A 531     -16.350 -15.578 -24.244 +0.00 +0.08    -0.750 OA
DOCKED: ATOM     28  O7  DVT A 531     -16.588 -15.987 -26.957 +0.00 +0.05    -0.750 OA
DOCKED: ATOM     29  V2  DVT A 531     -17.030 -15.290 -28.437 +0.04 +0.01    +1.500 Zn
DOCKED: ATOM     30  O1  DVT A 531     -16.802 -16.494 -29.587 +0.03 -0.07    -0.750 OA
DOCKED: ATOM     31  O17 DVT A 531     -19.593 -13.110 -28.708 +0.03 -0.01    -0.750 OA
DOCKED: ATOM     32  V4  DVT A 531     -19.464 -13.927 -26.889 +0.01 -0.07    +1.500 Zn
DOCKED: ATOM     33  O13 DVT A 531     -18.647 -14.888 -25.582 +0.00 +0.06    -0.750 OA
DOCKED: ATOM     34  O12 DVT A 531     -20.961 -14.486 -26.691 +0.01 +0.03    -0.750 OA
DOCKED: ATOM     35  O9  DVT A 531     -18.888 -15.356 -28.146 +0.02 -0.03    -0.750 OA
DOCKED: ATOM     36  V3  DVT A 531     -19.653 -14.712 -29.887 +0.15 +0.33    +1.500 Zn
DOCKED: ATOM     37  O3  DVT A 531     -18.985 -16.084 -30.871 +0.07 -0.48    -0.750 OA
DOCKED: ATOM     38  O10 DVT A 531     -21.149 -15.290 -29.643 +0.04 -0.16    -0.750 OA
DOCKED: ENDROOT
DOCKED: TORSDOF 0
DOCKED: TER
DOCKED: ENDMDL
________________________________________________________________________________


	BEGINNING GENETIC ALGORITHM DOCKING 44 of 50
Run: 44 Seed: 1273434523 1433463732 [ Run 44 of 50 GA/GALS ]
Beginning LAMARCKIAN GENETIC ALGORITHM (LGA), with a maximum of 2500000 energy evaluations.

Final-Value: -0.902


	FINAL GENETIC ALGORITHM DOCKED STATE
	_______________________________________________


Detailed state:  trans -16.454 -14.676 -29.875 quatxyzw -0.412726 -0.427764 -0.803995 -0.016349 center 38.166 -0.098 117.777 ntor 0
State:	-16.454 -14.676 -29.875  -0.413 -0.428 -0.804 -178.126  

DOCKED: MODEL       44
DOCKED: USER    Run = 44
DOCKED: USER    DPF = atp_pocket.dpf
DOCKED: USER  
DOCKED: USER    Estimated Free Energy of Binding    =   -0.90 kcal/mol  [=(1)+(2)+(3)-(4)]
DOCKED: USER    Estimated Inhibition Constant, Ki   =  218.02 mM (millimolar)  [Temperature = 298.15 K]
DOCKED: USER    
DOCKED: USER    (1) Final Intermolecular Energy     =   -0.90 kcal/mol
DOCKED: USER        vdW + Hbond + desolv Energy     =   +0.58 kcal/mol
DOCKED: USER        Electrostatic Energy            =   -1.48 kcal/mol
DOCKED: USER    (2) Final Total Internal Energy     =   +0.00 kcal/mol
DOCKED: USER    (3) Torsional Free Energy           =   +0.00 kcal/mol
DOCKED: USER    (4) Unbound System's Energy  [=(2)] =   +0.00 kcal/mol
DOCKED: USER    
DOCKED: USER    
DOCKED: USER    NEWDPF move ../ligands/decavanadate.pdbqt
DOCKED: USER    NEWDPF about 38.166447 -0.097658 117.776763
DOCKED: USER    NEWDPF tran0 -16.454053 -14.675692 -29.874693
DOCKED: USER    NEWDPF quaternion0 -0.412726 -0.427764 -0.803995 -0.016349
DOCKED: USER    NEWDPF axisangle0 -0.412781 -0.427822 -0.804102 -178.126428
DOCKED: USER    NEWDPF quat0 -0.412781 -0.427822 -0.804102 -178.126428
DOCKED: USER  keepresnum = 1 
DOCKED: USER  
DOCKED: USER                              x       y       z     vdW  Elec       q    Type
DOCKED: USER                           _______ _______ _______ _____ _____    ______ ____
DOCKED: ROOT
DOCKED: ATOM      1  O28 DVT A 531     -13.956 -18.598 -28.248 +0.00 +0.10    -0.750 OA
DOCKED: ATOM      2  V10 DVT A 531     -15.067 -17.572 -28.707 +0.02 -0.12    +1.500 Zn
DOCKED: ATOM      3  O18 DVT A 531     -15.592 -18.017 -30.425 +0.03 +0.01    -0.750 OA
DOCKED: ATOM      4  O15 DVT A 531     -16.677 -18.336 -28.237 +0.01 +0.03    -0.750 OA
DOCKED: ATOM      5  V1  DVT A 531     -18.172 -17.327 -28.582 +0.05 +0.09    +1.500 Zn
DOCKED: ATOM      6  O5  DVT A 531     -19.419 -18.249 -28.096 +0.02 -0.03    -0.750 OA
DOCKED: ATOM      7  O27 DVT A 531     -15.224 -16.515 -27.152 +0.00 +0.07    -0.750 OA
DOCKED: ATOM      8  V9  DVT A 531     -16.463 -15.161 -27.217 +0.01 -0.09    +1.500 Zn
DOCKED: ATOM      9  O2  DVT A 531     -16.553 -15.866 -29.334 +0.03 -0.03    -0.750 OA
DOCKED: ATOM     10  O4  DVT A 531     -17.866 -16.278 -27.051 +0.01 +0.03    -0.750 OA
DOCKED: ATOM     11  O8  DVT A 531     -17.641 -13.828 -28.146 +0.02 +0.01    -0.750 OA
DOCKED: ATOM     12  O26 DVT A 531     -16.210 -14.466 -25.792 +0.00 +0.07    -0.750 OA
DOCKED: ATOM     13  O24 DVT A 531     -15.089 -14.023 -28.157 +0.01 +0.06    -0.750 OA
DOCKED: ATOM     14  V7  DVT A 531     -16.298 -12.418 -28.435 +0.02 -0.09    +1.500 Zn
DOCKED: ATOM     15  O11 DVT A 531     -17.490 -11.410 -29.300 +0.02 +0.02    -0.750 OA
DOCKED: ATOM     16  O25 DVT A 531     -15.883 -11.887 -26.979 +0.00 +0.08    -0.750 OA
DOCKED: ATOM     17  O21 DVT A 531     -14.902 -11.640 -29.351 +0.01 +0.06    -0.750 OA
DOCKED: ATOM     18  V6  DVT A 531     -14.730 -11.988 -31.179 +0.11 -0.01    +1.500 Zn
DOCKED: ATOM     19  O19 DVT A 531     -14.913 -13.123 -32.668 +0.03 -0.15    -0.750 OA
DOCKED: ATOM     20  O22 DVT A 531     -13.488 -11.013 -31.454 +0.03 +0.08    -0.750 OA
DOCKED: ATOM     21  O6  DVT A 531     -16.222 -10.981 -31.602 +0.04 -0.08    -0.750 OA
DOCKED: ATOM     22  V8  DVT A 531     -14.783 -14.773 -29.886 +0.07 -0.09    +1.500 Zn
DOCKED: ATOM     23  O20 DVT A 531     -13.713 -13.664 -30.532 +0.04 +0.08    -0.750 OA
DOCKED: ATOM     24  O23 DVT A 531     -13.874 -16.066 -29.336 +0.02 +0.09    -0.750 OA
DOCKED: ATOM     25  O16 DVT A 531     -16.336 -13.471 -30.416 +0.05 -0.06    -0.750 OA
DOCKED: ATOM     26  V5  DVT A 531     -17.832 -11.786 -31.113 +0.15 +0.25    +1.500 Zn
DOCKED: ATOM     27  O14 DVT A 531     -18.983 -10.749 -31.548 +0.06 -0.08    -0.750 OA
DOCKED: ATOM     28  O7  DVT A 531     -19.045 -13.253 -30.404 +0.05 -0.13    -0.750 OA
DOCKED: ATOM     29  V2  DVT A 531     -18.115 -14.574 -29.894 +0.11 +0.26    +1.500 Zn
DOCKED: ATOM     30  O1  DVT A 531     -19.216 -15.697 -29.300 +0.03 -0.13    -0.750 OA
DOCKED: ATOM     31  O17 DVT A 531     -15.352 -15.582 -31.552 +0.05 -0.05    -0.750 OA
DOCKED: ATOM     32  V4  DVT A 531     -16.355 -14.149 -32.521 +0.27 +0.80    +1.500 Zn
DOCKED: ATOM     33  O13 DVT A 531     -17.614 -12.850 -32.669 -0.00 -0.57    -0.750 OA
DOCKED: ATOM     34  O12 DVT A 531     -16.543 -14.825 -33.970 -0.46 -0.99    -0.750 OA
DOCKED: ATOM     35  O9  DVT A 531     -17.748 -15.241 -31.615 -0.00 -0.46    -0.750 OA
DOCKED: ATOM     36  V3  DVT A 531     -16.763 -16.953 -31.249 +0.15 +0.57    +1.500 Zn
DOCKED: ATOM     37  O3  DVT A 531     -18.152 -17.756 -30.399 +0.01 -0.28    -0.750 OA
DOCKED: ATOM     38  O10 DVT A 531     -16.975 -17.593 -32.724 -0.50 -0.77    -0.750 OA
DOCKED: ENDROOT
DOCKED: TORSDOF 0
DOCKED: TER
DOCKED: ENDMDL
________________________________________________________________________________


	BEGINNING GENETIC ALGORITHM DOCKING 45 of 50
Run: 45 Seed: 695676451 1229079231 [ Run 45 of 50 GA/GALS ]
Beginning LAMARCKIAN GENETIC ALGORITHM (LGA), with a maximum of 2500000 energy evaluations.

Final-Value: -0.772


	FINAL GENETIC ALGORITHM DOCKED STATE
	_______________________________________________


Detailed state:  trans -18.287 -14.421 -29.559 quatxyzw -0.882751 -0.251911 0.318519 -0.236300 center 38.166 -0.098 117.777 ntor 0
State:	-18.287 -14.421 -29.559  -0.908 -0.259  0.328 -152.664  

DOCKED: MODEL       45
DOCKED: USER    Run = 45
DOCKED: USER    DPF = atp_pocket.dpf
DOCKED: USER  
DOCKED: USER    Estimated Free Energy of Binding    =   -0.77 kcal/mol  [=(1)+(2)+(3)-(4)]
DOCKED: USER    Estimated Inhibition Constant, Ki   =  271.57 mM (millimolar)  [Temperature = 298.15 K]
DOCKED: USER    
DOCKED: USER    (1) Final Intermolecular Energy     =   -0.77 kcal/mol
DOCKED: USER        vdW + Hbond + desolv Energy     =   +0.90 kcal/mol
DOCKED: USER        Electrostatic Energy            =   -1.67 kcal/mol
DOCKED: USER    (2) Final Total Internal Energy     =   +0.00 kcal/mol
DOCKED: USER    (3) Torsional Free Energy           =   +0.00 kcal/mol
DOCKED: USER    (4) Unbound System's Energy  [=(2)] =   +0.00 kcal/mol
DOCKED: USER    
DOCKED: USER    
DOCKED: USER    NEWDPF move ../ligands/decavanadate.pdbqt
DOCKED: USER    NEWDPF about 38.166447 -0.097658 117.776763
DOCKED: USER    NEWDPF tran0 -18.286815 -14.421389 -29.559030
DOCKED: USER    NEWDPF quaternion0 -0.882751 -0.251911 0.318519 -0.236300
DOCKED: USER    NEWDPF axisangle0 -0.908479 -0.259253 0.327802 -152.663506
DOCKED: USER    NEWDPF quat0 -0.908479 -0.259253 0.327802 -152.663506
DOCKED: USER  keepresnum = 1 
DOCKED: USER  
DOCKED: USER                              x       y       z     vdW  Elec       q    Type
DOCKED: USER                           _______ _______ _______ _____ _____    ______ ____
DOCKED: ROOT
DOCKED: ATOM      1  O28 DVT A 531     -17.734 -19.124 -30.920 +0.02 -0.17    -0.750 OA
DOCKED: ATOM      2  V10 DVT A 531     -17.540 -17.657 -30.364 +0.11 +0.42    +1.500 Zn
DOCKED: ATOM      3  O18 DVT A 531     -17.714 -17.709 -28.522 +0.02 -0.03    -0.750 OA
DOCKED: ATOM      4  O15 DVT A 531     -15.743 -17.500 -29.985 +0.03 -0.00    -0.750 OA
DOCKED: ATOM      5  V1  DVT A 531     -15.193 -15.855 -29.383 +0.04 -0.07    +1.500 Zn
DOCKED: ATOM      6  O5  DVT A 531     -13.600 -16.021 -29.112 +0.01 +0.10    -0.750 OA
DOCKED: ATOM      7  O27 DVT A 531     -17.186 -16.724 -31.966 -0.31 -0.70    -0.750 OA
DOCKED: ATOM      8  V9  DVT A 531     -16.860 -14.925 -31.798 +0.22 +0.68    +1.500 Zn
DOCKED: ATOM      9  O2  DVT A 531     -17.436 -15.409 -29.694 +0.03 -0.11    -0.750 OA
DOCKED: ATOM     10  O4  DVT A 531     -15.205 -15.167 -31.133 +0.05 -0.02    -0.750 OA
DOCKED: ATOM     11  O8  DVT A 531     -16.965 -13.145 -30.878 +0.05 -0.13    -0.750 OA
DOCKED: ATOM     12  O26 DVT A 531     -16.721 -14.509 -33.342 -0.24 -0.78    -0.750 OA
DOCKED: ATOM     13  O24 DVT A 531     -18.855 -14.624 -31.767 +0.04 -0.48    -0.750 OA
DOCKED: ATOM     14  V7  DVT A 531     -18.761 -12.617 -31.486 +0.23 +0.45    +1.500 Zn
DOCKED: ATOM     15  O11 DVT A 531     -18.680 -11.110 -30.534 +0.05 -0.03    -0.750 OA
DOCKED: ATOM     16  O25 DVT A 531     -18.659 -12.426 -33.076 -0.26 -0.67    -0.750 OA
DOCKED: ATOM     17  O21 DVT A 531     -20.601 -12.636 -31.392 +0.08 -0.15    -0.750 OA
DOCKED: ATOM     18  V6  DVT A 531     -21.406 -12.959 -29.736 +0.15 +0.09    +1.500 Zn
DOCKED: ATOM     19  O19 DVT A 531     -21.433 -13.786 -28.048 +0.02 +0.00    -0.750 OA
DOCKED: ATOM     20  O22 DVT A 531     -22.924 -12.753 -30.207 +0.04 -0.03    -0.750 OA
DOCKED: ATOM     21  O6  DVT A 531     -20.893 -11.315 -29.065 +0.02 +0.04    -0.750 OA
DOCKED: ATOM     22  V8  DVT A 531     -19.540 -15.364 -30.146 +0.16 +0.49    +1.500 Zn
DOCKED: ATOM     23  O20 DVT A 531     -21.152 -14.941 -30.257 +0.03 -0.22    -0.750 OA
DOCKED: ATOM     24  O23 DVT A 531     -19.418 -16.958 -30.639 +0.05 -0.50    -0.750 OA
DOCKED: ATOM     25  O16 DVT A 531     -19.159 -13.431 -29.434 +0.04 -0.06    -0.750 OA
DOCKED: ATOM     26  V5  DVT A 531     -19.069 -11.193 -28.693 +0.02 -0.08    +1.500 Zn
DOCKED: ATOM     27  O14 DVT A 531     -18.839  -9.698 -28.146 +0.00 +0.08    -0.750 OA
DOCKED: ATOM     28  O7  DVT A 531     -17.159 -11.852 -28.492 +0.01 +0.04    -0.750 OA
DOCKED: ATOM     29  V2  DVT A 531     -17.057 -13.480 -28.950 +0.05 +0.01    +1.500 Zn
DOCKED: ATOM     30  O1  DVT A 531     -15.438 -13.896 -28.778 +0.02 +0.04    -0.750 OA
DOCKED: ATOM     31  O17 DVT A 531     -19.494 -15.706 -28.239 +0.03 -0.04    -0.750 OA
DOCKED: ATOM     32  V4  DVT A 531     -19.796 -13.929 -27.375 +0.03 -0.04    +1.500 Zn
DOCKED: ATOM     33  O13 DVT A 531     -19.468 -12.163 -27.111 +0.00 +0.05    -0.750 OA
DOCKED: ATOM     34  O12 DVT A 531     -20.005 -14.362 -25.838 +0.00 +0.05    -0.750 OA
DOCKED: ATOM     35  O9  DVT A 531     -17.823 -14.180 -27.380 +0.01 +0.03    -0.750 OA
DOCKED: ATOM     36  V3  DVT A 531     -17.656 -16.166 -27.629 +0.03 -0.02    +1.500 Zn
DOCKED: ATOM     37  O3  DVT A 531     -15.841 -16.170 -27.660 +0.01 +0.05    -0.750 OA
DOCKED: ATOM     38  O10 DVT A 531     -17.876 -16.554 -26.069 +0.00 +0.05    -0.750 OA
DOCKED: ENDROOT
DOCKED: TORSDOF 0
DOCKED: TER
DOCKED: ENDMDL
________________________________________________________________________________


	BEGINNING GENETIC ALGORITHM DOCKING 46 of 50
Run: 46 Seed: 1961341038 57249815 [ Run 46 of 50 GA/GALS ]
Beginning LAMARCKIAN GENETIC ALGORITHM (LGA), with a maximum of 2500000 energy evaluations.

Final-Value: -0.691


	FINAL GENETIC ALGORITHM DOCKED STATE
	_______________________________________________


Detailed state:  trans -18.727 -18.611 -27.758 quatxyzw -0.550490 0.087611 -0.701923 0.443384 center 38.166 -0.098 117.777 ntor 0
State:	-18.727 -18.611 -27.758  -0.614  0.098 -0.783 127.360  

DOCKED: MODEL       46
DOCKED: USER    Run = 46
DOCKED: USER    DPF = atp_pocket.dpf
DOCKED: USER  
DOCKED: USER    Estimated Free Energy of Binding    =   -0.69 kcal/mol  [=(1)+(2)+(3)-(4)]
DOCKED: USER    Estimated Inhibition Constant, Ki   =  311.40 mM (millimolar)  [Temperature = 298.15 K]
DOCKED: USER    
DOCKED: USER    (1) Final Intermolecular Energy     =   -0.69 kcal/mol
DOCKED: USER        vdW + Hbond + desolv Energy     =   +0.21 kcal/mol
DOCKED: USER        Electrostatic Energy            =   -0.90 kcal/mol
DOCKED: USER    (2) Final Total Internal Energy     =   +0.00 kcal/mol
DOCKED: USER    (3) Torsional Free Energy           =   +0.00 kcal/mol
DOCKED: USER    (4) Unbound System's Energy  [=(2)] =   +0.00 kcal/mol
DOCKED: USER    
DOCKED: USER    
DOCKED: USER    NEWDPF move ../ligands/decavanadate.pdbqt
DOCKED: USER    NEWDPF about 38.166447 -0.097658 117.776763
DOCKED: USER    NEWDPF tran0 -18.727213 -18.611448 -27.757658
DOCKED: USER    NEWDPF quaternion0 -0.550490 0.087611 -0.701923 0.443384
DOCKED: USER    NEWDPF axisangle0 -0.614159 0.097744 -0.783106 127.359972
DOCKED: USER    NEWDPF quat0 -0.614159 0.097744 -0.783106 127.359972
DOCKED: USER  keepresnum = 1 
DOCKED: USER  
DOCKED: USER                              x       y       z     vdW  Elec       q    Type
DOCKED: USER                           _______ _______ _______ _____ _____    ______ ____
DOCKED: ROOT
DOCKED: ATOM      1  O28 DVT A 531     -22.435 -21.853 -27.902 +0.01 +0.03    -0.750 OA
DOCKED: ATOM      2  V10 DVT A 531     -21.538 -20.554 -27.815 +0.03 -0.03    +1.500 Zn
DOCKED: ATOM      3  O18 DVT A 531     -21.568 -19.718 -29.466 +0.05 -0.07    -0.750 OA
DOCKED: ATOM      4  O15 DVT A 531     -22.679 -19.190 -27.332 +0.02 +0.01    -0.750 OA
DOCKED: ATOM      5  V1  DVT A 531     -21.899 -17.548 -27.076 +0.04 -0.01    +1.500 Zn
DOCKED: ATOM      6  O5  DVT A 531     -23.128 -16.558 -26.691 +0.01 +0.02    -0.750 OA
DOCKED: ATOM      7  O27 DVT A 531     -21.006 -20.623 -26.006 +0.00 +0.05    -0.750 OA
DOCKED: ATOM      8  V9  DVT A 531     -19.935 -19.249 -25.426 +0.00 -0.10    +1.500 Zn
DOCKED: ATOM      9  O2  DVT A 531     -20.019 -18.776 -27.607 +0.02 -0.00    -0.750 OA
DOCKED: ATOM     10  O4  DVT A 531     -21.286 -18.060 -25.374 +0.00 +0.05    -0.750 OA
DOCKED: ATOM     11  O8  DVT A 531     -18.627 -17.746 -25.670 +0.00 +0.05    -0.750 OA
DOCKED: ATOM     12  O26 DVT A 531     -19.634 -19.728 -23.923 +0.00 +0.06    -0.750 OA
DOCKED: ATOM     13  O24 DVT A 531     -18.351 -20.237 -26.191 +0.00 +0.05    -0.750 OA
DOCKED: ATOM     14  V7  DVT A 531     -16.976 -18.815 -25.736 +0.00 -0.13    +1.500 Zn
DOCKED: ATOM     15  O11 DVT A 531     -15.996 -17.351 -26.019 +0.00 +0.07    -0.750 OA
DOCKED: ATOM     16  O25 DVT A 531     -16.811 -19.477 -24.284 +0.00 +0.07    -0.750 OA
DOCKED: ATOM     17  O21 DVT A 531     -15.734 -19.872 -26.594 +0.00 +0.07    -0.750 OA
DOCKED: ATOM     18  V6  DVT A 531     -15.517 -19.674 -28.440 +0.01 -0.14    +1.500 Zn
DOCKED: ATOM     19  O19 DVT A 531     -16.201 -19.301 -30.151 +0.02 +0.01    -0.750 OA
DOCKED: ATOM     20  O22 DVT A 531     -14.298 -20.700 -28.611 +0.00 +0.10    -0.750 OA
DOCKED: ATOM     21  O6  DVT A 531     -14.717 -18.018 -28.258 +0.01 +0.08    -0.750 OA
DOCKED: ATOM     22  V8  DVT A 531     -18.516 -20.238 -28.092 +0.02 -0.04    +1.500 Zn
DOCKED: ATOM     23  O20 DVT A 531     -17.097 -20.999 -28.538 +0.01 +0.05    -0.750 OA
DOCKED: ATOM     24  O23 DVT A 531     -19.726 -21.392 -28.143 +0.01 +0.03    -0.750 OA
DOCKED: ATOM     25  O16 DVT A 531     -17.418 -18.464 -27.907 +0.01 +0.02    -0.750 OA
DOCKED: ATOM     26  V5  DVT A 531     -15.902 -16.662 -27.769 +0.01 -0.09    +1.500 Zn
DOCKED: ATOM     27  O14 DVT A 531     -15.008 -15.329 -27.649 +0.01 +0.07    -0.750 OA
DOCKED: ATOM     28  O7  DVT A 531     -17.702 -15.819 -27.353 +0.01 +0.02    -0.750 OA
DOCKED: ATOM     29  V2  DVT A 531     -18.924 -16.987 -27.452 +0.03 +0.00    +1.500 Zn
DOCKED: ATOM     30  O1  DVT A 531     -20.347 -16.186 -27.054 +0.01 +0.01    -0.750 OA
DOCKED: ATOM     31  O17 DVT A 531     -18.912 -19.413 -29.800 +0.03 -0.10    -0.750 OA
DOCKED: ATOM     32  V4  DVT A 531     -17.469 -18.059 -30.081 +0.09 +0.27    +1.500 Zn
DOCKED: ATOM     33  O13 DVT A 531     -16.428 -16.653 -29.593 +0.03 -0.04    -0.750 OA
DOCKED: ATOM     34  O12 DVT A 531     -17.732 -17.635 -31.612 -0.16 -0.68    -0.750 OA
DOCKED: ATOM     35  O9  DVT A 531     -19.003 -17.040 -29.331 +0.03 -0.15    -0.750 OA
DOCKED: ATOM     36  V3  DVT A 531     -20.542 -18.276 -29.697 +0.17 +0.38    +1.500 Zn
DOCKED: ATOM     37  O3  DVT A 531     -21.788 -17.215 -28.910 +0.04 -0.10    -0.750 OA
DOCKED: ATOM     38  O10 DVT A 531     -20.768 -17.820 -31.237 -0.36 -0.79    -0.750 OA
DOCKED: ENDROOT
DOCKED: TORSDOF 0
DOCKED: TER
DOCKED: ENDMDL
________________________________________________________________________________


	BEGINNING GENETIC ALGORITHM DOCKING 47 of 50
Run: 47 Seed: 1748919946 1048910010 [ Run 47 of 50 GA/GALS ]
Beginning LAMARCKIAN GENETIC ALGORITHM (LGA), with a maximum of 2500000 energy evaluations.

Final-Value: -0.690


	FINAL GENETIC ALGORITHM DOCKED STATE
	_______________________________________________


Detailed state:  trans -18.703 -18.062 -27.666 quatxyzw -0.524367 0.034618 -0.716812 0.458282 center 38.166 -0.098 117.777 ntor 0
State:	-18.703 -18.062 -27.666  -0.590  0.039 -0.806 125.447  

DOCKED: MODEL       47
DOCKED: USER    Run = 47
DOCKED: USER    DPF = atp_pocket.dpf
DOCKED: USER  
DOCKED: USER    Estimated Free Energy of Binding    =   -0.69 kcal/mol  [=(1)+(2)+(3)-(4)]
DOCKED: USER    Estimated Inhibition Constant, Ki   =  311.82 mM (millimolar)  [Temperature = 298.15 K]
DOCKED: USER    
DOCKED: USER    (1) Final Intermolecular Energy     =   -0.69 kcal/mol
DOCKED: USER        vdW + Hbond + desolv Energy     =   +0.25 kcal/mol
DOCKED: USER        Electrostatic Energy            =   -0.94 kcal/mol
DOCKED: USER    (2) Final Total Internal Energy     =   +0.00 kcal/mol
DOCKED: USER    (3) Torsional Free Energy           =   +0.00 kcal/mol
DOCKED: USER    (4) Unbound System's Energy  [=(2)] =   +0.00 kcal/mol
DOCKED: USER    
DOCKED: USER    
DOCKED: USER    NEWDPF move ../ligands/decavanadate.pdbqt
DOCKED: USER    NEWDPF about 38.166447 -0.097658 117.776763
DOCKED: USER    NEWDPF tran0 -18.703468 -18.061862 -27.665915
DOCKED: USER    NEWDPF quaternion0 -0.524367 0.034618 -0.716812 0.458282
DOCKED: USER    NEWDPF axisangle0 -0.589967 0.038948 -0.806488 125.447423
DOCKED: USER    NEWDPF quat0 -0.589967 0.038948 -0.806488 125.447423
DOCKED: USER  keepresnum = 1 
DOCKED: USER  
DOCKED: USER                              x       y       z     vdW  Elec       q    Type
DOCKED: USER                           _______ _______ _______ _____ _____    ______ ____
DOCKED: ROOT
DOCKED: ATOM      1  O28 DVT A 531     -22.258 -21.466 -27.435 +0.01 +0.03    -0.750 OA
DOCKED: ATOM      2  V10 DVT A 531     -21.422 -20.126 -27.499 +0.03 -0.03    +1.500 Zn
DOCKED: ATOM      3  O18 DVT A 531     -21.480 -19.489 -29.236 +0.05 -0.07    -0.750 OA
DOCKED: ATOM      4  O15 DVT A 531     -22.627 -18.769 -27.179 +0.02 +0.01    -0.750 OA
DOCKED: ATOM      5  V1  DVT A 531     -21.925 -17.074 -27.115 +0.05 -0.01    +1.500 Zn
DOCKED: ATOM      6  O5  DVT A 531     -23.200 -16.103 -26.849 +0.01 +0.02    -0.750 OA
DOCKED: ATOM      7  O27 DVT A 531     -20.899 -19.959 -25.694 +0.00 +0.05    -0.750 OA
DOCKED: ATOM      8  V9  DVT A 531     -19.895 -18.479 -25.277 +0.00 -0.10    +1.500 Zn
DOCKED: ATOM      9  O2  DVT A 531     -19.987 -18.267 -27.498 +0.01 -0.00    -0.750 OA
DOCKED: ATOM     10  O4  DVT A 531     -21.299 -17.356 -25.364 +0.00 +0.05    -0.750 OA
DOCKED: ATOM     11  O8  DVT A 531     -18.656 -16.956 -25.693 +0.00 +0.05    -0.750 OA
DOCKED: ATOM     12  O26 DVT A 531     -19.582 -18.766 -23.728 +0.00 +0.07    -0.750 OA
DOCKED: ATOM     13  O24 DVT A 531     -18.262 -19.475 -25.920 +0.00 +0.05    -0.750 OA
DOCKED: ATOM     14  V7  DVT A 531     -16.957 -17.948 -25.633 +0.00 -0.13    +1.500 Zn
DOCKED: ATOM     15  O11 DVT A 531     -16.043 -16.483 -26.084 +0.00 +0.07    -0.750 OA
DOCKED: ATOM     16  O25 DVT A 531     -16.771 -18.428 -24.114 +0.00 +0.07    -0.750 OA
DOCKED: ATOM     17  O21 DVT A 531     -15.663 -19.039 -26.361 +0.00 +0.07    -0.750 OA
DOCKED: ATOM     18  V6  DVT A 531     -15.444 -19.047 -28.217 +0.01 -0.13    +1.500 Zn
DOCKED: ATOM     19  O19 DVT A 531     -16.134 -18.908 -29.961 +0.02 +0.01    -0.750 OA
DOCKED: ATOM     20  O22 DVT A 531     -14.178 -20.029 -28.267 +0.00 +0.10    -0.750 OA
DOCKED: ATOM     21  O6  DVT A 531     -14.721 -17.346 -28.229 +0.01 +0.07    -0.750 OA
DOCKED: ATOM     22  V8  DVT A 531     -18.416 -19.705 -27.809 +0.02 -0.04    +1.500 Zn
DOCKED: ATOM     23  O20 DVT A 531     -16.961 -20.446 -28.161 +0.01 +0.05    -0.750 OA
DOCKED: ATOM     24  O23 DVT A 531     -19.572 -20.912 -27.725 +0.01 +0.03    -0.750 OA
DOCKED: ATOM     25  O16 DVT A 531     -17.401 -17.872 -27.831 +0.01 +0.02    -0.750 OA
DOCKED: ATOM     26  V5  DVT A 531     -15.970 -15.999 -27.902 +0.02 -0.08    +1.500 Zn
DOCKED: ATOM     27  O14 DVT A 531     -15.139 -14.621 -27.938 +0.01 +0.06    -0.750 OA
DOCKED: ATOM     28  O7  DVT A 531     -17.809 -15.196 -27.588 +0.01 +0.01    -0.750 OA
DOCKED: ATOM     29  V2  DVT A 531     -18.976 -16.424 -27.551 +0.03 +0.01    +1.500 Zn
DOCKED: ATOM     30  O1  DVT A 531     -20.437 -15.648 -27.251 +0.02 +0.00    -0.750 OA
DOCKED: ATOM     31  O17 DVT A 531     -18.839 -19.103 -29.601 +0.03 -0.10    -0.750 OA
DOCKED: ATOM     32  V4  DVT A 531     -17.457 -17.725 -30.037 +0.09 +0.29    +1.500 Zn
DOCKED: ATOM     33  O13 DVT A 531     -16.485 -16.226 -29.715 +0.03 -0.06    -0.750 OA
DOCKED: ATOM     34  O12 DVT A 531     -17.730 -17.496 -31.607 -0.14 -0.71    -0.750 OA
DOCKED: ATOM     35  O9  DVT A 531     -19.041 -16.698 -29.412 +0.03 -0.16    -0.750 OA
DOCKED: ATOM     36  V3  DVT A 531     -20.520 -18.038 -29.632 +0.16 +0.39    +1.500 Zn
DOCKED: ATOM     37  O3  DVT A 531     -21.817 -16.952 -28.975 +0.04 -0.10    -0.750 OA
DOCKED: ATOM     38  O10 DVT A 531     -20.757 -17.775 -31.215 -0.35 -0.79    -0.750 OA
DOCKED: ENDROOT
DOCKED: TORSDOF 0
DOCKED: TER
DOCKED: ENDMDL
________________________________________________________________________________


	BEGINNING GENETIC ALGORITHM DOCKING 48 of 50
Run: 48 Seed: 188568031 1387311428 [ Run 48 of 50 GA/GALS ]
Beginning LAMARCKIAN GENETIC ALGORITHM (LGA), with a maximum of 2500000 energy evaluations.

Final-Value: -0.674


	FINAL GENETIC ALGORITHM DOCKED STATE
	_______________________________________________


Detailed state:  trans -18.703 -18.453 -27.747 quatxyzw 0.025337 -0.335540 -0.523743 -0.782601 center 38.166 -0.098 117.777 ntor 0
State:	-18.703 -18.453 -27.747   0.041 -0.539 -0.841 -77.001  

DOCKED: MODEL       48
DOCKED: USER    Run = 48
DOCKED: USER    DPF = atp_pocket.dpf
DOCKED: USER  
DOCKED: USER    Estimated Free Energy of Binding    =   -0.67 kcal/mol  [=(1)+(2)+(3)-(4)]
DOCKED: USER    Estimated Inhibition Constant, Ki   =  320.74 mM (millimolar)  [Temperature = 298.15 K]
DOCKED: USER    
DOCKED: USER    (1) Final Intermolecular Energy     =   -0.67 kcal/mol
DOCKED: USER        vdW + Hbond + desolv Energy     =   +0.25 kcal/mol
DOCKED: USER        Electrostatic Energy            =   -0.93 kcal/mol
DOCKED: USER    (2) Final Total Internal Energy     =   +0.00 kcal/mol
DOCKED: USER    (3) Torsional Free Energy           =   +0.00 kcal/mol
DOCKED: USER    (4) Unbound System's Energy  [=(2)] =   +0.00 kcal/mol
DOCKED: USER    
DOCKED: USER    
DOCKED: USER    NEWDPF move ../ligands/decavanadate.pdbqt
DOCKED: USER    NEWDPF about 38.166447 -0.097658 117.776763
DOCKED: USER    NEWDPF tran0 -18.702570 -18.452573 -27.746846
DOCKED: USER    NEWDPF quaternion0 0.025337 -0.335540 -0.523743 -0.782601
DOCKED: USER    NEWDPF axisangle0 0.040701 -0.539000 -0.841322 -77.001396
DOCKED: USER    NEWDPF quat0 0.040701 -0.539000 -0.841322 -77.001396
DOCKED: USER  keepresnum = 1 
DOCKED: USER  
DOCKED: USER                              x       y       z     vdW  Elec       q    Type
DOCKED: USER                           _______ _______ _______ _____ _____    ______ ____
DOCKED: ROOT
DOCKED: ATOM      1  O28 DVT A 531     -15.120 -15.089 -27.389 +0.00 +0.07    -0.750 OA
DOCKED: ATOM      2  V10 DVT A 531     -15.982 -16.387 -27.657 +0.01 -0.09    +1.500 Zn
DOCKED: ATOM      3  O18 DVT A 531     -16.426 -16.425 -29.454 +0.03 -0.03    -0.750 OA
DOCKED: ATOM      4  O15 DVT A 531     -14.777 -17.696 -28.137 +0.01 +0.07    -0.750 OA
DOCKED: ATOM      5  V1  DVT A 531     -15.487 -19.362 -28.443 +0.01 -0.13    +1.500 Zn
DOCKED: ATOM      6  O5  DVT A 531     -14.217 -20.285 -28.865 +0.00 +0.10    -0.750 OA
DOCKED: ATOM      7  O27 DVT A 531     -15.991 -17.158 -25.936 +0.00 +0.07    -0.750 OA
DOCKED: ATOM      8  V9  DVT A 531     -16.886 -18.753 -25.770 +0.00 -0.13    +1.500 Zn
DOCKED: ATOM      9  O2  DVT A 531     -17.417 -18.233 -27.876 +0.01 +0.02    -0.750 OA
DOCKED: ATOM     10  O4  DVT A 531     -15.595 -19.699 -26.596 +0.00 +0.08    -0.750 OA
DOCKED: ATOM     11  O8  DVT A 531     -18.237 -20.135 -26.308 +0.00 +0.05    -0.750 OA
DOCKED: ATOM     12  O26 DVT A 531     -16.749 -19.001 -24.189 +0.00 +0.07    -0.750 OA
DOCKED: ATOM     13  O24 DVT A 531     -18.601 -17.708 -25.585 +0.00 +0.05    -0.750 OA
DOCKED: ATOM     14  V7  DVT A 531     -19.822 -19.323 -25.470 +0.00 -0.10    +1.500 Zn
DOCKED: ATOM     15  O11 DVT A 531     -20.869 -20.620 -26.110 +0.00 +0.04    -0.750 OA
DOCKED: ATOM     16  O25 DVT A 531     -19.567 -19.371 -23.887 +0.00 +0.07    -0.750 OA
DOCKED: ATOM     17  O21 DVT A 531     -21.233 -18.140 -25.423 +0.00 +0.05    -0.750 OA
DOCKED: ATOM     18  V6  DVT A 531     -21.956 -17.548 -27.042 +0.04 -0.02    +1.500 Zn
DOCKED: ATOM     19  O19 DVT A 531     -21.779 -17.075 -28.853 +0.04 -0.09    -0.750 OA
DOCKED: ATOM     20  O22 DVT A 531     -23.155 -16.683 -26.423 +0.01 +0.03    -0.750 OA
DOCKED: ATOM     21  O6  DVT A 531     -22.705 -19.196 -27.412 +0.02 +0.01    -0.750 OA
DOCKED: ATOM     22  V8  DVT A 531     -18.967 -16.872 -27.262 +0.02 -0.01    +1.500 Zn
DOCKED: ATOM     23  O20 DVT A 531     -20.440 -16.149 -26.945 +0.01 +0.01    -0.750 OA
DOCKED: ATOM     24  O23 DVT A 531     -17.797 -15.687 -27.105 +0.01 +0.03    -0.750 OA
DOCKED: ATOM     25  O16 DVT A 531     -20.005 -18.660 -27.605 +0.02 -0.00    -0.750 OA
DOCKED: ATOM     26  V5  DVT A 531     -21.457 -20.496 -27.894 +0.03 -0.02    +1.500 Zn
DOCKED: ATOM     27  O14 DVT A 531     -22.307 -21.838 -28.151 +0.01 +0.02    -0.750 OA
DOCKED: ATOM     28  O7  DVT A 531     -19.628 -21.240 -28.370 +0.01 +0.02    -0.750 OA
DOCKED: ATOM     29  V2  DVT A 531     -18.459 -20.020 -28.252 +0.02 -0.03    +1.500 Zn
DOCKED: ATOM     30  O1  DVT A 531     -16.997 -20.758 -28.628 +0.01 +0.05    -0.750 OA
DOCKED: ATOM     31  O17 DVT A 531     -19.076 -16.838 -29.196 +0.03 -0.14    -0.750 OA
DOCKED: ATOM     32  V4  DVT A 531     -20.565 -18.085 -29.667 +0.17 +0.39    +1.500 Zn
DOCKED: ATOM     33  O13 DVT A 531     -21.456 -19.665 -29.600 +0.05 -0.08    -0.750 OA
DOCKED: ATOM     34  O12 DVT A 531     -20.743 -17.779 -31.237 -0.35 -0.81    -0.750 OA
DOCKED: ATOM     35  O9  DVT A 531     -18.903 -19.158 -29.865 +0.03 -0.12    -0.750 OA
DOCKED: ATOM     36  V3  DVT A 531     -17.501 -17.728 -30.027 +0.09 +0.30    +1.500 Zn
DOCKED: ATOM     37  O3  DVT A 531     -16.107 -18.885 -30.138 +0.02 +0.00    -0.750 OA
DOCKED: ATOM     38  O10 DVT A 531     -17.719 -17.452 -31.611 -0.14 -0.71    -0.750 OA
DOCKED: ENDROOT
DOCKED: TORSDOF 0
DOCKED: TER
DOCKED: ENDMDL
________________________________________________________________________________


	BEGINNING GENETIC ALGORITHM DOCKING 49 of 50
Run: 49 Seed: 654181932 1355646969 [ Run 49 of 50 GA/GALS ]
Beginning LAMARCKIAN GENETIC ALGORITHM (LGA), with a maximum of 2500000 energy evaluations.

Final-Value: -0.782


	FINAL GENETIC ALGORITHM DOCKED STATE
	_______________________________________________


Detailed state:  trans -17.191 -13.631 -28.794 quatxyzw -0.548061 0.161659 -0.184832 -0.799583 center 38.166 -0.098 117.777 ntor 0
State:	-17.191 -13.631 -28.794  -0.913  0.269 -0.308 -73.819  

DOCKED: MODEL       49
DOCKED: USER    Run = 49
DOCKED: USER    DPF = atp_pocket.dpf
DOCKED: USER  
DOCKED: USER    Estimated Free Energy of Binding    =   -0.78 kcal/mol  [=(1)+(2)+(3)-(4)]
DOCKED: USER    Estimated Inhibition Constant, Ki   =  267.25 mM (millimolar)  [Temperature = 298.15 K]
DOCKED: USER    
DOCKED: USER    (1) Final Intermolecular Energy     =   -0.78 kcal/mol
DOCKED: USER        vdW + Hbond + desolv Energy     =   +0.49 kcal/mol
DOCKED: USER        Electrostatic Energy            =   -1.27 kcal/mol
DOCKED: USER    (2) Final Total Internal Energy     =   +0.00 kcal/mol
DOCKED: USER    (3) Torsional Free Energy           =   +0.00 kcal/mol
DOCKED: USER    (4) Unbound System's Energy  [=(2)] =   +0.00 kcal/mol
DOCKED: USER    
DOCKED: USER    
DOCKED: USER    NEWDPF move ../ligands/decavanadate.pdbqt
DOCKED: USER    NEWDPF about 38.166447 -0.097658 117.776763
DOCKED: USER    NEWDPF tran0 -17.191054 -13.631217 -28.793658
DOCKED: USER    NEWDPF quaternion0 -0.548061 0.161659 -0.184832 -0.799583
DOCKED: USER    NEWDPF axisangle0 -0.912590 0.269182 -0.307767 -73.819474
DOCKED: USER    NEWDPF quat0 -0.912590 0.269182 -0.307767 -73.819474
DOCKED: USER  keepresnum = 1 
DOCKED: USER  
DOCKED: USER                              x       y       z     vdW  Elec       q    Type
DOCKED: USER                           _______ _______ _______ _____ _____    ______ ____
DOCKED: ROOT
DOCKED: ATOM      1  O28 DVT A 531     -18.560 -11.801 -33.158 -0.33 -0.69    -0.750 OA
DOCKED: ATOM      2  V10 DVT A 531     -18.121 -12.727 -31.955 +0.24 +0.66    +1.500 Zn
DOCKED: ATOM      3  O18 DVT A 531     -19.630 -13.573 -31.295 +0.04 -0.26    -0.750 OA
DOCKED: ATOM      4  O15 DVT A 531     -17.772 -14.378 -32.697 +0.01 -0.65    -0.750 OA
DOCKED: ATOM      5  V1  DVT A 531     -17.160 -15.663 -31.537 +0.18 +0.80    +1.500 Zn
DOCKED: ATOM      6  O5  DVT A 531     -16.967 -16.992 -32.451 -0.45 -0.78    -0.750 OA
DOCKED: ATOM      7  O27 DVT A 531     -16.257 -12.437 -31.957 +0.04 -0.22    -0.750 OA
DOCKED: ATOM      8  V9  DVT A 531     -15.293 -13.363 -30.698 +0.11 +0.04    +1.500 Zn
DOCKED: ATOM      9  O2  DVT A 531     -17.367 -13.899 -30.065 +0.04 -0.09    -0.750 OA
DOCKED: ATOM     10  O4  DVT A 531     -15.428 -14.929 -31.576 +0.06 -0.08    -0.750 OA
DOCKED: ATOM     11  O8  DVT A 531     -15.056 -14.356 -28.971 +0.02 +0.05    -0.750 OA
DOCKED: ATOM     12  O26 DVT A 531     -13.825 -12.770 -30.961 +0.04 +0.07    -0.750 OA
DOCKED: ATOM     13  O24 DVT A 531     -15.769 -11.930 -29.361 +0.02 +0.04    -0.750 OA
DOCKED: ATOM     14  V7  DVT A 531     -14.850 -12.804 -27.778 +0.00 -0.15    +1.500 Zn
DOCKED: ATOM     15  O11 DVT A 531     -14.731 -13.870 -26.351 +0.00 +0.08    -0.750 OA
DOCKED: ATOM     16  O25 DVT A 531     -13.482 -12.085 -28.208 +0.00 +0.10    -0.750 OA
DOCKED: ATOM     17  O21 DVT A 531     -15.504 -11.422 -26.751 +0.00 +0.08    -0.750 OA
DOCKED: ATOM     18  V6  DVT A 531     -17.214 -11.588 -26.015 +0.00 -0.15    +1.500 Zn
DOCKED: ATOM     19  O19 DVT A 531     -18.986 -12.213 -26.082 +0.00 +0.07    -0.750 OA
DOCKED: ATOM     20  O22 DVT A 531     -17.206 -10.222 -25.176 +0.00 +0.09    -0.750 OA
DOCKED: ATOM     21  O6  DVT A 531     -16.667 -12.882 -24.812 +0.00 +0.08    -0.750 OA
DOCKED: ATOM     22  V8  DVT A 531     -17.645 -12.036 -29.023 +0.05 -0.03    +1.500 Zn
DOCKED: ATOM     23  O20 DVT A 531     -17.826 -10.862 -27.848 +0.00 +0.06    -0.750 OA
DOCKED: ATOM     24  O23 DVT A 531     -18.105 -11.348 -30.476 +0.04 -0.04    -0.750 OA
DOCKED: ATOM     25  O16 DVT A 531     -17.012 -13.343 -27.512 +0.01 +0.04    -0.750 OA
DOCKED: ATOM     26  V5  DVT A 531     -16.323 -14.538 -25.599 +0.00 -0.14    +1.500 Zn
DOCKED: ATOM     27  O14 DVT A 531     -15.850 -15.497 -24.397 +0.00 +0.08    -0.750 OA
DOCKED: ATOM     28  O7  DVT A 531     -16.250 -15.917 -27.088 +0.00 +0.05    -0.750 OA
DOCKED: ATOM     29  V2  DVT A 531     -16.762 -15.220 -28.546 +0.04 -0.00    +1.500 Zn
DOCKED: ATOM     30  O1  DVT A 531     -16.623 -16.435 -29.699 +0.03 -0.06    -0.750 OA
DOCKED: ATOM     31  O17 DVT A 531     -19.296 -12.993 -28.685 +0.03 -0.01    -0.750 OA
DOCKED: ATOM     32  V4  DVT A 531     -19.078 -13.802 -26.871 +0.01 -0.08    +1.500 Zn
DOCKED: ATOM     33  O13 DVT A 531     -18.206 -14.771 -25.606 +0.00 +0.06    -0.750 OA
DOCKED: ATOM     34  O12 DVT A 531     -20.572 -14.331 -26.584 +0.01 +0.04    -0.750 OA
DOCKED: ATOM     35  O9  DVT A 531     -18.601 -15.249 -28.149 +0.02 -0.02    -0.750 OA
DOCKED: ATOM     36  V3  DVT A 531     -19.453 -14.601 -29.848 +0.14 +0.31    +1.500 Zn
DOCKED: ATOM     37  O3  DVT A 531     -18.868 -15.991 -30.858 +0.05 -0.46    -0.750 OA
DOCKED: ATOM     38  O10 DVT A 531     -20.943 -15.149 -29.515 +0.04 -0.14    -0.750 OA
DOCKED: ENDROOT
DOCKED: TORSDOF 0
DOCKED: TER
DOCKED: ENDMDL
________________________________________________________________________________


	BEGINNING GENETIC ALGORITHM DOCKING 50 of 50
Run: 50 Seed: 689613672 1877013769 [ Run 50 of 50 GA/GALS ]
Beginning LAMARCKIAN GENETIC ALGORITHM (LGA), with a maximum of 2500000 energy evaluations.

Final-Value: -0.673


	FINAL GENETIC ALGORITHM DOCKED STATE
	_______________________________________________


Detailed state:  trans -18.721 -18.293 -27.708 quatxyzw -0.011127 0.348899 0.512399 0.784597 center 38.166 -0.098 117.777 ntor 0
State:	-18.721 -18.293 -27.708  -0.018  0.563  0.826 76.633  

DOCKED: MODEL       50
DOCKED: USER    Run = 50
DOCKED: USER    DPF = atp_pocket.dpf
DOCKED: USER  
DOCKED: USER    Estimated Free Energy of Binding    =   -0.67 kcal/mol  [=(1)+(2)+(3)-(4)]
DOCKED: USER    Estimated Inhibition Constant, Ki   =  321.37 mM (millimolar)  [Temperature = 298.15 K]
DOCKED: USER    
DOCKED: USER    (1) Final Intermolecular Energy     =   -0.67 kcal/mol
DOCKED: USER        vdW + Hbond + desolv Energy     =   +0.25 kcal/mol
DOCKED: USER        Electrostatic Energy            =   -0.93 kcal/mol
DOCKED: USER    (2) Final Total Internal Energy     =   +0.00 kcal/mol
DOCKED: USER    (3) Torsional Free Energy           =   +0.00 kcal/mol
DOCKED: USER    (4) Unbound System's Energy  [=(2)] =   +0.00 kcal/mol
DOCKED: USER    
DOCKED: USER    
DOCKED: USER    NEWDPF move ../ligands/decavanadate.pdbqt
DOCKED: USER    NEWDPF about 38.166447 -0.097658 117.776763
DOCKED: USER    NEWDPF tran0 -18.720712 -18.292807 -27.707949
DOCKED: USER    NEWDPF quaternion0 -0.011127 0.348899 0.512399 0.784597
DOCKED: USER    NEWDPF axisangle0 -0.017946 0.562736 0.826442 76.633121
DOCKED: USER    NEWDPF quat0 -0.017946 0.562736 0.826442 76.633121
DOCKED: USER  keepresnum = 1 
DOCKED: USER  
DOCKED: USER                              x       y       z     vdW  Elec       q    Type
DOCKED: USER                           _______ _______ _______ _____ _____    ______ ____
DOCKED: ROOT
DOCKED: ATOM      1  O28 DVT A 531     -15.173 -14.882 -27.480 +0.00 +0.07    -0.750 OA
DOCKED: ATOM      2  V10 DVT A 531     -16.020 -16.199 -27.696 +0.01 -0.09    +1.500 Zn
DOCKED: ATOM      3  O18 DVT A 531     -16.454 -16.320 -29.491 +0.03 -0.04    -0.750 OA
DOCKED: ATOM      4  O15 DVT A 531     -14.801 -17.516 -28.111 +0.01 +0.07    -0.750 OA
DOCKED: ATOM      5  V1  DVT A 531     -15.493 -19.201 -28.347 +0.01 -0.13    +1.500 Zn
DOCKED: ATOM      6  O5  DVT A 531     -14.212 -20.129 -28.721 +0.00 +0.10    -0.750 OA
DOCKED: ATOM      7  O27 DVT A 531     -16.031 -16.894 -25.942 +0.00 +0.07    -0.750 OA
DOCKED: ATOM      8  V9  DVT A 531     -16.912 -18.489 -25.710 +0.00 -0.13    +1.500 Zn
DOCKED: ATOM      9  O2  DVT A 531     -17.436 -18.066 -27.840 +0.01 +0.02    -0.750 OA
DOCKED: ATOM     10  O4  DVT A 531     -15.608 -19.457 -26.488 +0.00 +0.07    -0.750 OA
DOCKED: ATOM     11  O8  DVT A 531     -18.247 -19.906 -26.195 +0.00 +0.05    -0.750 OA
DOCKED: ATOM     12  O26 DVT A 531     -16.782 -18.665 -24.120 +0.00 +0.07    -0.750 OA
DOCKED: ATOM     13  O24 DVT A 531     -18.638 -17.453 -25.581 +0.00 +0.05    -0.750 OA
DOCKED: ATOM     14  V7  DVT A 531     -19.844 -19.074 -25.401 +0.00 -0.10    +1.500 Zn
DOCKED: ATOM     15  O11 DVT A 531     -20.876 -20.407 -25.988 +0.00 +0.05    -0.750 OA
DOCKED: ATOM     16  O25 DVT A 531     -19.597 -19.049 -23.816 +0.00 +0.07    -0.750 OA
DOCKED: ATOM     17  O21 DVT A 531     -21.266 -17.903 -25.413 +0.00 +0.05    -0.750 OA
DOCKED: ATOM     18  V6  DVT A 531     -21.986 -17.390 -27.060 +0.04 -0.01    +1.500 Zn
DOCKED: ATOM     19  O19 DVT A 531     -21.804 -16.995 -28.889 +0.04 -0.10    -0.750 OA
DOCKED: ATOM     20  O22 DVT A 531     -23.197 -16.511 -26.486 +0.01 +0.03    -0.750 OA
DOCKED: ATOM     21  O6  DVT A 531     -22.718 -19.060 -27.361 +0.02 +0.01    -0.750 OA
DOCKED: ATOM     22  V8  DVT A 531     -19.003 -16.695 -27.294 +0.03 -0.01    +1.500 Zn
DOCKED: ATOM     23  O20 DVT A 531     -20.484 -15.974 -27.017 +0.01 +0.01    -0.750 OA
DOCKED: ATOM     24  O23 DVT A 531     -17.845 -15.493 -27.184 +0.01 +0.03    -0.750 OA
DOCKED: ATOM     25  O16 DVT A 531     -20.022 -18.506 -27.564 +0.02 -0.00    -0.750 OA
DOCKED: ATOM     26  V5  DVT A 531     -21.454 -20.368 -27.779 +0.03 -0.02    +1.500 Zn
DOCKED: ATOM     27  O14 DVT A 531     -22.290 -21.727 -27.981 +0.01 +0.02    -0.750 OA
DOCKED: ATOM     28  O7  DVT A 531     -19.616 -21.114 -28.213 +0.01 +0.02    -0.750 OA
DOCKED: ATOM     29  V2  DVT A 531     -18.459 -19.878 -28.142 +0.02 -0.03    +1.500 Zn
DOCKED: ATOM     30  O1  DVT A 531     -16.988 -20.618 -28.479 +0.01 +0.05    -0.750 OA
DOCKED: ATOM     31  O17 DVT A 531     -19.101 -16.747 -29.229 +0.03 -0.14    -0.750 OA
DOCKED: ATOM     32  V4  DVT A 531     -20.576 -18.028 -29.651 +0.17 +0.39    +1.500 Zn
DOCKED: ATOM     33  O13 DVT A 531     -21.452 -19.613 -29.520 +0.05 -0.08    -0.750 OA
DOCKED: ATOM     34  O12 DVT A 531     -20.749 -17.793 -31.235 -0.35 -0.80    -0.750 OA
DOCKED: ATOM     35  O9  DVT A 531     -18.902 -19.092 -29.794 +0.03 -0.12    -0.750 OA
DOCKED: ATOM     36  V3  DVT A 531     -17.514 -17.657 -30.012 +0.09 +0.30    +1.500 Zn
DOCKED: ATOM     37  O3  DVT A 531     -16.108 -18.805 -30.065 +0.02 +0.00    -0.750 OA
DOCKED: ATOM     38  O10 DVT A 531     -17.725 -17.453 -31.607 -0.14 -0.72    -0.750 OA
DOCKED: ENDROOT
DOCKED: TORSDOF 0
DOCKED: TER
DOCKED: ENDMDL
________________________________________________________________________________

DPF> do_local_only 0

auto-centering ligand on root atoms: 38.166 -0.098 117.777
Furthest true ligand atom from "about" center is 4.972 Angstroms (maxrad).
Number of Local Search (LS) only dockings = 0 runs
Unbound model to be used is from file: "../grid/AD4.1_bound.dat".
>>> Closing the docking parameter file (DPF)...
This docking finished at:			7:59 19" p.m., 08/04/2026


________________________________________________________________________________

autodock4: Successful Completion on "TerminalXolotl"

Real= 3m 29.80s,  CPU= 3m 26.63s,  System= 0.54s
________________________________________________________________________________

