MODEL       16
USER    Run = 16
USER    DPF = pocket_small.dpf
USER  
USER    Estimated Free Energy of Binding    =   -1.51 kcal/mol  [=(1)+(2)+(3)-(4)]
USER    Estimated Inhibition Constant, Ki   =   78.41 mM (millimolar)  [Temperature = 298.15 K]
USER    
USER    (1) Final Intermolecular Energy     =   -1.51 kcal/mol
USER        vdW + Hbond + desolv Energy     =   -0.13 kcal/mol
USER        Electrostatic Energy            =   -1.38 kcal/mol
USER    (2) Final Total Internal Energy     =   +0.00 kcal/mol
USER    (3) Torsional Free Energy           =   +0.00 kcal/mol
USER    (4) Unbound System's Energy  [=(2)] =   +0.00 kcal/mol
USER    
USER    
USER    NEWDPF move ../ligands/orthovanadate.pdbqt
USER    NEWDPF about 0.000000 0.000000 0.000000
USER    NEWDPF tran0 -35.815086 -20.110841 -43.217379
USER    NEWDPF quaternion0 0.018044 0.452388 0.867773 0.204916
USER    NEWDPF axisangle0 0.018435 0.462196 0.886586 156.350850
USER    NEWDPF quat0 0.018435 0.462196 0.886586 156.350850
USER  keepresnum = 1 
USER  
USER                              x       y       z     vdW  Elec       q    Type
USER                           _______ _______ _______ _____ _____    ______ ____
ROOT
ATOM      1  V1  VO4 A   1     -35.815 -20.111 -43.217 +1.09 +0.80    +1.500 Zn
ATOM      2  O1  VO4 A   1     -36.520 -20.165 -41.617 +0.15 -0.15    -0.750 OA
ATOM      3  O2  VO4 A   1     -36.960 -20.742 -44.380 -0.34 -1.12    -0.750 OA
ATOM      4  O3  VO4 A   1     -34.359 -21.080 -43.247 -0.59 -0.47    -0.750 OA
ATOM      5  O4  VO4 A   1     -35.422 -18.456 -43.626 -0.45 -0.44    -0.750 OA
ENDROOT
TORSDOF 0
TER
ENDMDL
