          AutoDock 4.2 Release 4.2.6   
         (C) 1989-2012 The Scripps Research Institute
        AutoDock comes with ABSOLUTELY NO WARRANTY.
        AutoDock is free software, and you are welcome
        to redistribute it under certain conditions;
        for details type 'autodock4 -C'

                     main.cc  $Revision: 1.213 $

                   Compiled on Dec 11 2024 at 15:52:35


This file was created at:			6:50 20" p.m., 08/04/2026
                   on host:		"TerminalXolotl"
Current Working Directory = "/mnt/c/Users/Me/Desktop/CANIFARMA/docking"

      ________________________________________________________________

                   SETTING UP DEFAULT PARAMETER LIBRARY
      ________________________________________________________________


Random number generator was seeded with values 3683, 1785891020.
Docking parameter file (DPF) used for this docking:		blind_docking.dpf
DPF> parameter_file ../grid/AD4.1_bound.dat

Using read_parameter_library() to try to open and read "../grid/AD4.1_bound.dat".

DPF> ligand_types Zn OA

DPF> fld ../grid/4wo5_chainA.maps.fld

Opening Grid Map Dimensions file:		../grid/4wo5_chainA.maps.fld
Grid Point Spacing =				0.375 Angstroms

Even Number of User-specified Grid Points =	220 x-points
						200 y-points
						220 z-points

Coordinates of Central Grid Point of Maps =	(-29.625, -17.138, -51.670)
Macromolecule file used to create Grid Maps =	../receptor/4wo5_chainA.pdbqt
Grid Parameter file used to create Grid Maps =	blind_docking.gpf
Minimum coordinates in grid = (-70.875, -54.638, -92.920)
Maximum coordinates in grid = (11.625, 20.362, -10.420)

DPF> map ../grid/4wo5_chainA.Zn.map

autodock4: WARNING: Filename mismatch: "4wo5_chainA.maps.fld" :: "../grid/4wo5_chainA.maps.fld"
DPF> map ../grid/4wo5_chainA.OA.map

autodock4: WARNING: Filename mismatch: "4wo5_chainA.maps.fld" :: "../grid/4wo5_chainA.maps.fld"
DPF> elecmap ../grid/4wo5_chainA.e.map

autodock4: WARNING: Filename mismatch: "4wo5_chainA.maps.fld" :: "../grid/4wo5_chainA.maps.fld"
DPF> desolvmap ../grid/4wo5_chainA.d.map

autodock4: WARNING: Filename mismatch: "4wo5_chainA.maps.fld" :: "../grid/4wo5_chainA.maps.fld"
DPF> move ../ligands/decavanadate.pdbqt

1,4-interactions will be _ignored_ in the non-bonded internal energy calculation.

Ligand PDBQT file = "../ligands/decavanadate.pdbqt"

INPUT LIGAND PDBQT FILE:
________________________

INPUT-LIGAND-PDBQT: ROOT
INPUT-LIGAND-PDBQT: HETATM    1  O28 DVT A 531      36.341   4.432 117.126  1.00  0.00    -0.750 OA
INPUT-LIGAND-PDBQT: HETATM    2  V10 DVT A 531      37.098   3.051 116.989  1.00  0.00    +1.500 Zn
INPUT-LIGAND-PDBQT: HETATM    3  O18 DVT A 531      36.134   1.975 115.832  1.00  0.00    -0.750 OA
INPUT-LIGAND-PDBQT: HETATM    4  O15 DVT A 531      38.227   3.241 115.545  1.00  0.00    -0.750 OA
INPUT-LIGAND-PDBQT: HETATM    5  V1  DVT A 531      39.308   1.802 115.180  1.00  0.00    +1.500 Zn
INPUT-LIGAND-PDBQT: HETATM    6  O5  DVT A 531      40.157   2.241 113.866  1.00  0.00    -0.750 OA
INPUT-LIGAND-PDBQT: HETATM    7  O27 DVT A 531      38.600   3.370 118.085  1.00  0.00    -0.750 OA
INPUT-LIGAND-PDBQT: HETATM    8  V9  DVT A 531      39.815   1.999 118.210  1.00  0.00    +1.500 Zn
INPUT-LIGAND-PDBQT: HETATM    9  O2  DVT A 531      38.209   0.983 117.036  1.00  0.00    -0.750 OA
INPUT-LIGAND-PDBQT: HETATM   10  O4  DVT A 531      40.486   2.286 116.564  1.00  0.00    -0.750 OA
INPUT-LIGAND-PDBQT: HETATM   11  O8  DVT A 531      40.397   0.081 118.108  1.00  0.00    -0.750 OA
INPUT-LIGAND-PDBQT: HETATM   12  O26 DVT A 531      40.841   2.615 119.280  1.00  0.00    -0.750 OA
INPUT-LIGAND-PDBQT: HETATM   13  O24 DVT A 531      38.644   1.165 119.625  1.00  0.00    -0.750 OA
INPUT-LIGAND-PDBQT: HETATM   14  V7  DVT A 531      39.777  -0.498 119.884  1.00  0.00    +1.500 Zn
INPUT-LIGAND-PDBQT: HETATM   15  O11 DVT A 531      40.306  -2.172 119.563  1.00  0.00    -0.750 OA
INPUT-LIGAND-PDBQT: HETATM   16  O25 DVT A 531      40.664   0.305 120.953  1.00  0.00    -0.750 OA
INPUT-LIGAND-PDBQT: HETATM   17  O21 DVT A 531      38.491  -1.079 121.068  1.00  0.00    -0.750 OA
INPUT-LIGAND-PDBQT: HETATM   18  V6  DVT A 531      37.025  -2.026 120.399  1.00  0.00    +1.500 Zn
INPUT-LIGAND-PDBQT: HETATM   19  O19 DVT A 531      35.766  -2.380 119.048  1.00  0.00    -0.750 OA
INPUT-LIGAND-PDBQT: HETATM   20  O22 DVT A 531      36.339  -2.358 121.809  1.00  0.00    -0.750 OA
INPUT-LIGAND-PDBQT: HETATM   21  O6  DVT A 531      38.050  -3.515 120.012  1.00  0.00    -0.750 OA
INPUT-LIGAND-PDBQT: HETATM   22  V8  DVT A 531      37.026   0.591 118.791  1.00  0.00    +1.500 Zn
INPUT-LIGAND-PDBQT: HETATM   23  O20 DVT A 531      36.246  -0.142 120.074  1.00  0.00    -0.750 OA
INPUT-LIGAND-PDBQT: HETATM   24  O23 DVT A 531      36.377   2.125 118.636  1.00  0.00    -0.750 OA
INPUT-LIGAND-PDBQT: HETATM   25  O16 DVT A 531      38.116  -1.181 118.540  1.00  0.00    -0.750 OA
INPUT-LIGAND-PDBQT: HETATM   26  V5  DVT A 531      39.180  -3.286 118.545  1.00  0.00    +1.500 Zn
INPUT-LIGAND-PDBQT: HETATM   27  O14 DVT A 531      39.982  -4.673 118.397  1.00  0.00    -0.750 OA
INPUT-LIGAND-PDBQT: HETATM   28  O7  DVT A 531      39.979  -2.339 116.936  1.00  0.00    -0.750 OA
INPUT-LIGAND-PDBQT: HETATM   29  V2  DVT A 531      39.281  -0.805 116.763  1.00  0.00    +1.500 Zn
INPUT-LIGAND-PDBQT: HETATM   30  O1  DVT A 531      40.042  -0.111 115.435  1.00  0.00    -0.750 OA
INPUT-LIGAND-PDBQT: HETATM   31  O17 DVT A 531      36.008  -0.237 117.365  1.00  0.00    -0.750 OA
INPUT-LIGAND-PDBQT: HETATM   32  V4  DVT A 531      36.480  -2.178 117.434  1.00  0.00    +1.500 Zn
INPUT-LIGAND-PDBQT: HETATM   33  O13 DVT A 531      37.634  -3.579 117.484  1.00  0.00    -0.750 OA
INPUT-LIGAND-PDBQT: HETATM   34  O12 DVT A 531      35.401  -2.798 116.413  1.00  0.00    -0.750 OA
INPUT-LIGAND-PDBQT: HETATM   35  O9  DVT A 531      37.655  -1.404 116.029  1.00  0.00    -0.750 OA
INPUT-LIGAND-PDBQT: HETATM   36  V3  DVT A 531      36.695   0.301 115.576  1.00  0.00    +1.500 Zn
INPUT-LIGAND-PDBQT: HETATM   37  O3  DVT A 531      37.923   0.856 114.360  1.00  0.00    -0.750 OA
INPUT-LIGAND-PDBQT: HETATM   38  O10 DVT A 531      35.625  -0.369 114.557  1.00  0.00    -0.750 OA
INPUT-LIGAND-PDBQT: ENDROOT
INPUT-LIGAND-PDBQT: TORSDOF 0
________________________________________________________________________________

Total charge on ligand                               =	-6.000 e

*** No Rotatable Bonds detected in Small Molecule. ***

Number of atoms in ligand:  38

Number of non-hydrogen atoms in ligand:  38

Number of vibrational degrees of freedom of ligand:  108


Number of torsional degrees of freedom = 0
Estimated loss of torsional free energy upon binding = +0.0000 kcal/mol


DPF> set_ga

DPF> set_sw1

Creating a new Local Search object using the Solis-Wets algorithm (SW1) with the current settings.

DPF> tran0 random

Initial translation =			(-7.268, -5.524, -57.516) Angstroms
DPF> quaternion0 random

Each run will begin with a new, random initial orientation.
Initial quaternion,  (x,y,z,w) =	( 0.271, 0.435, 0.242, -0.824 ),
DPF> ndihe 0

autodock4: WARNING!  The "ndihe" command is no longer supported.  The number of torsions in the PDBQT file(s) is the number that will be used (i.e. 0)
DPF> torsdof 0

Number of torsional degrees of freedom = 0
Free energy coefficient for torsional degrees of freedom = 0.2983 as specified in parameter library "../grid/AD4.1_bound.dat".

Estimated loss of torsional free energy upon binding = +0.0000 kcal/mol

DPF> rmstol 2.0

Maximum RMS tolerance for conformational cluster analysis = 2.00 Angstroms
DPF> outlev 1

Output Level = 1  ADT-COMPATIBLE OUTPUT DURING DOCKING.
DPF> ga_pop_size 150

A population of 150 individuals will be used
DPF> ga_num_evals 2500000

There will be at most 2500000 function evaluations used.
DPF> ga_num_generations 27000

The GA will run for at most 27000 generations.
DPF> ga_elitism 1

The 1 best will be preserved each GA generation.
DPF> ga_mutation_rate 0.02

The mutation rate is 0.020000.
DPF> ga_crossover_rate 0.80

The crossover rate is 0.800000.
DPF> ga_window_size 10

The GA's selection window is 10 generations.
DPF> ga_run 50

auto-centering ligand on root atoms: 38.166 -0.098 117.777
Furthest true ligand atom from "about" center is 4.972 Angstroms (maxrad).
Number of requested GA dockings = 50 runs
Unbound model to be used is from file: "../grid/AD4.1_bound.dat".

	BEGINNING GENETIC ALGORITHM DOCKING 1 of 50
Run: 1 Seed: 1812917225 836854667 [ Run 1 of 50 GA/GALS ]
Beginning LAMARCKIAN GENETIC ALGORITHM (LGA), with a maximum of 2500000 energy evaluations.

Final-Value: -1.864


	FINAL GENETIC ALGORITHM DOCKED STATE
	_______________________________________________


Detailed state:  trans 2.215 -11.216 -53.781 quatxyzw -0.032715 0.293001 -0.755199 0.585453 center 38.166 -0.098 117.777 ntor 0
State:	  2.215 -11.216 -53.781  -0.040  0.361 -0.932 108.330  

DOCKED: MODEL        1
DOCKED: USER    Run = 1
DOCKED: USER    DPF = blind_docking.dpf
DOCKED: USER  
DOCKED: USER    Estimated Free Energy of Binding    =   -1.86 kcal/mol  [=(1)+(2)+(3)-(4)]
DOCKED: USER    Estimated Inhibition Constant, Ki   =   42.99 mM (millimolar)  [Temperature = 298.15 K]
DOCKED: USER    
DOCKED: USER    (1) Final Intermolecular Energy     =   -1.86 kcal/mol
DOCKED: USER        vdW + Hbond + desolv Energy     =   -0.38 kcal/mol
DOCKED: USER        Electrostatic Energy            =   -1.49 kcal/mol
DOCKED: USER    (2) Final Total Internal Energy     =   +0.00 kcal/mol
DOCKED: USER    (3) Torsional Free Energy           =   +0.00 kcal/mol
DOCKED: USER    (4) Unbound System's Energy  [=(2)] =   +0.00 kcal/mol
DOCKED: USER    
DOCKED: USER    
DOCKED: USER    NEWDPF move ../ligands/decavanadate.pdbqt
DOCKED: USER    NEWDPF about 38.166447 -0.097658 117.776763
DOCKED: USER    NEWDPF tran0 2.215469 -11.216056 -53.781273
DOCKED: USER    NEWDPF quaternion0 -0.032715 0.293001 -0.755199 0.585453
DOCKED: USER    NEWDPF axisangle0 -0.040354 0.361414 -0.931532 108.330064
DOCKED: USER    NEWDPF quat0 -0.040354 0.361414 -0.931532 108.330064
DOCKED: USER  keepresnum = 1 
DOCKED: USER  
DOCKED: USER                              x       y       z     vdW  Elec       q    Type
DOCKED: USER                           _______ _______ _______ _____ _____    ______ ____
DOCKED: ROOT
DOCKED: ATOM      1  O28 DVT A 531      -1.116 -13.129 -56.866 +0.00 -0.25    -0.750 OA
DOCKED: ATOM      2  V10 DVT A 531      -0.064 -12.211 -56.124 +0.09 +0.55    +1.500 Zn
DOCKED: ATOM      3  O18 DVT A 531       1.549 -12.335 -57.024 +0.02 -0.05    -0.750 OA
DOCKED: ATOM      4  O15 DVT A 531      -0.164 -10.567 -56.951 +0.02 -0.08    -0.750 OA
DOCKED: ATOM      5  V1  DVT A 531       0.905  -9.251 -56.246 +0.03 +0.05    +1.500 Zn
DOCKED: ATOM      6  O5  DVT A 531       0.629  -7.947 -57.176 +0.01 +0.03    -0.750 OA
DOCKED: ATOM      7  O27 DVT A 531      -1.143 -11.484 -54.758 -0.46 -0.84    -0.750 OA
DOCKED: ATOM      8  V9  DVT A 531      -0.321 -10.298 -53.624 +0.11 +0.87    +1.500 Zn
DOCKED: ATOM      9  O2  DVT A 531       1.443 -10.977 -54.813 +0.02 -0.14    -0.750 OA
DOCKED: ATOM     10  O4  DVT A 531      -0.306  -8.967 -54.836 +0.02 -0.10    -0.750 OA
DOCKED: ATOM     11  O8  DVT A 531       1.260  -9.471 -52.704 +0.02 -0.13    -0.750 OA
DOCKED: ATOM     12  O26 DVT A 531      -1.512 -10.012 -52.586 -0.36 -0.68    -0.750 OA
DOCKED: ATOM     13  O24 DVT A 531       0.383 -11.872 -52.577 -0.27 -0.66    -0.750 OA
DOCKED: ATOM     14  V7  DVT A 531       1.455 -10.779 -51.246 +0.09 +0.39    +1.500 Zn
DOCKED: ATOM     15  O11 DVT A 531       2.897  -9.928 -50.627 +0.02 -0.02    -0.750 OA
DOCKED: ATOM     16  O25 DVT A 531       0.139 -10.640 -50.340 -0.01 -0.36    -0.750 OA
DOCKED: ATOM     17  O21 DVT A 531       2.034 -12.378 -50.538 +0.02 -0.13    -0.750 OA
DOCKED: ATOM     18  V6  DVT A 531       3.544 -13.189 -51.283 +0.04 +0.06    +1.500 Zn
DOCKED: ATOM     19  O19 DVT A 531       4.654 -13.578 -52.751 +0.01 +0.01    -0.750 OA
DOCKED: ATOM     20  O22 DVT A 531       3.644 -14.413 -50.254 +0.02 -0.01    -0.750 OA
DOCKED: ATOM     21  O6  DVT A 531       4.683 -11.904 -50.599 +0.01 +0.02    -0.750 OA
DOCKED: ATOM     22  V8  DVT A 531       1.652 -12.789 -53.669 +0.09 +0.46    +1.500 Zn
DOCKED: ATOM     23  O20 DVT A 531       2.181 -13.976 -52.619 +0.02 -0.13    -0.750 OA
DOCKED: ATOM     24  O23 DVT A 531       0.514 -13.495 -54.672 -0.12 -0.44    -0.750 OA
DOCKED: ATOM     25  O16 DVT A 531       2.986 -11.472 -52.733 +0.02 -0.07    -0.750 OA
DOCKED: ATOM     26  V5  DVT A 531       4.554 -10.253 -51.460 +0.01 -0.04    +1.500 Zn
DOCKED: ATOM     27  O14 DVT A 531       5.600  -9.290 -50.707 +0.00 +0.05    -0.750 OA
DOCKED: ATOM     28  O7  DVT A 531       3.921  -8.924 -52.858 +0.01 +0.02    -0.750 OA
DOCKED: ATOM     29  V2  DVT A 531       2.804  -9.663 -53.895 +0.03 +0.05    +1.500 Zn
DOCKED: ATOM     30  O1  DVT A 531       2.329  -8.466 -54.974 +0.01 +0.01    -0.750 OA
DOCKED: ATOM     31  O17 DVT A 531       3.136 -12.865 -54.912 +0.02 -0.04    -0.750 OA
DOCKED: ATOM     32  V4  DVT A 531       4.722 -12.213 -53.885 +0.02 -0.03    +1.500 Zn
DOCKED: ATOM     33  O13 DVT A 531       5.613 -11.039 -52.825 +0.00 +0.04    -0.750 OA
DOCKED: ATOM     34  O12 DVT A 531       5.919 -12.567 -54.902 +0.00 +0.04    -0.750 OA
DOCKED: ATOM     35  O9  DVT A 531       4.069 -10.632 -54.898 +0.01 +0.01    -0.750 OA
DOCKED: ATOM     36  V3  DVT A 531       2.961 -11.488 -56.338 +0.03 +0.01    +1.500 Zn
DOCKED: ATOM     37  O3  DVT A 531       2.433  -9.920 -57.085 +0.01 +0.02    -0.750 OA
DOCKED: ATOM     38  O10 DVT A 531       4.200 -11.828 -57.329 +0.00 +0.04    -0.750 OA
DOCKED: ENDROOT
DOCKED: TORSDOF 0
DOCKED: TER
DOCKED: ENDMDL
________________________________________________________________________________


	BEGINNING GENETIC ALGORITHM DOCKING 2 of 50
Run: 2 Seed: 1655691444 1406280162 [ Run 2 of 50 GA/GALS ]
Beginning LAMARCKIAN GENETIC ALGORITHM (LGA), with a maximum of 2500000 energy evaluations.

Final-Value: -2.092


	FINAL GENETIC ALGORITHM DOCKED STATE
	_______________________________________________


Detailed state:  trans -26.297 -32.399 -29.667 quatxyzw -0.558839 0.637441 0.199529 -0.491484 center 38.166 -0.098 117.777 ntor 0
State:	-26.297 -32.399 -29.667  -0.642  0.732  0.229 -121.124  

DOCKED: MODEL        2
DOCKED: USER    Run = 2
DOCKED: USER    DPF = blind_docking.dpf
DOCKED: USER  
DOCKED: USER    Estimated Free Energy of Binding    =   -2.09 kcal/mol  [=(1)+(2)+(3)-(4)]
DOCKED: USER    Estimated Inhibition Constant, Ki   =   29.30 mM (millimolar)  [Temperature = 298.15 K]
DOCKED: USER    
DOCKED: USER    (1) Final Intermolecular Energy     =   -2.09 kcal/mol
DOCKED: USER        vdW + Hbond + desolv Energy     =   +0.18 kcal/mol
DOCKED: USER        Electrostatic Energy            =   -2.28 kcal/mol
DOCKED: USER    (2) Final Total Internal Energy     =   +0.00 kcal/mol
DOCKED: USER    (3) Torsional Free Energy           =   +0.00 kcal/mol
DOCKED: USER    (4) Unbound System's Energy  [=(2)] =   +0.00 kcal/mol
DOCKED: USER    
DOCKED: USER    
DOCKED: USER    NEWDPF move ../ligands/decavanadate.pdbqt
DOCKED: USER    NEWDPF about 38.166447 -0.097658 117.776763
DOCKED: USER    NEWDPF tran0 -26.296989 -32.399239 -29.666613
DOCKED: USER    NEWDPF quaternion0 -0.558839 0.637441 0.199529 -0.491484
DOCKED: USER    NEWDPF axisangle0 -0.641689 0.731945 0.229110 -121.123719
DOCKED: USER    NEWDPF quat0 -0.641689 0.731945 0.229110 -121.123719
DOCKED: USER  keepresnum = 1 
DOCKED: USER  
DOCKED: USER                              x       y       z     vdW  Elec       q    Type
DOCKED: USER                           _______ _______ _______ _____ _____    ______ ____
DOCKED: ROOT
DOCKED: ATOM      1  O28 DVT A 531     -30.872 -30.640 -29.167 +0.03 -0.07    -0.750 OA
DOCKED: ATOM      2  V10 DVT A 531     -29.591 -31.549 -29.343 +0.04 +0.20    +1.500 Zn
DOCKED: ATOM      3  O18 DVT A 531     -29.184 -32.300 -27.701 +0.01 -0.01    -0.750 OA
DOCKED: ATOM      4  O15 DVT A 531     -30.225 -33.237 -29.727 +0.01 -0.04    -0.750 OA
DOCKED: ATOM      5  V1  DVT A 531     -28.948 -34.514 -30.061 +0.01 +0.06    +1.500 Zn
DOCKED: ATOM      6  O5  DVT A 531     -29.786 -35.878 -30.338 +0.00 +0.01    -0.750 OA
DOCKED: ATOM      7  O27 DVT A 531     -29.277 -31.350 -31.193 +0.01 -0.36    -0.750 OA
DOCKED: ATOM      8  V9  DVT A 531     -27.850 -32.282 -31.875 +0.10 +0.95    +1.500 Zn
DOCKED: ATOM      9  O2  DVT A 531     -27.573 -32.697 -29.698 +0.02 -0.12    -0.750 OA
DOCKED: ATOM     10  O4  DVT A 531     -28.702 -33.867 -31.810 +0.02 -0.13    -0.750 OA
DOCKED: ATOM     11  O8  DVT A 531     -26.085 -33.232 -31.759 +0.02 -0.23    -0.750 OA
DOCKED: ATOM     12  O26 DVT A 531     -27.867 -31.770 -33.396 -0.17 -1.20    -0.750 OA
DOCKED: ATOM     13  O24 DVT A 531     -26.647 -30.787 -31.253 +0.03 -0.74    -0.750 OA
DOCKED: ATOM     14  V7  DVT A 531     -24.909 -31.656 -31.838 +0.12 +0.87    +1.500 Zn
DOCKED: ATOM     15  O11 DVT A 531     -23.461 -32.682 -31.654 +0.02 -0.11    -0.750 OA
DOCKED: ATOM     16  O25 DVT A 531     -25.112 -31.017 -33.296 -0.41 -1.29    -0.750 OA
DOCKED: ATOM     17  O21 DVT A 531     -24.042 -30.212 -31.092 +0.02 -0.30    -0.750 OA
DOCKED: ATOM     18  V6  DVT A 531     -23.610 -30.273 -29.275 +0.04 +0.15    +1.500 Zn
DOCKED: ATOM     19  O19 DVT A 531     -23.969 -30.813 -27.510 +0.01 -0.00    -0.750 OA
DOCKED: ATOM     20  O22 DVT A 531     -22.813 -28.884 -29.211 +0.02 -0.04    -0.750 OA
DOCKED: ATOM     21  O6  DVT A 531     -22.303 -31.553 -29.537 +0.01 -0.01    -0.750 OA
DOCKED: ATOM     22  V8  DVT A 531     -26.636 -30.792 -29.344 +0.05 +0.39    +1.500 Zn
DOCKED: ATOM     23  O20 DVT A 531     -25.536 -29.575 -29.026 +0.03 -0.15    -0.750 OA
DOCKED: ATOM     24  O23 DVT A 531     -28.162 -30.127 -29.178 +0.03 -0.18    -0.750 OA
DOCKED: ATOM     25  O16 DVT A 531     -25.010 -32.080 -29.638 +0.02 -0.11    -0.750 OA
DOCKED: ATOM     26  V5  DVT A 531     -22.981 -33.248 -29.923 +0.02 +0.03    +1.500 Zn
DOCKED: ATOM     27  O14 DVT A 531     -21.694 -34.191 -30.131 +0.00 +0.03    -0.750 OA
DOCKED: ATOM     28  O7  DVT A 531     -24.405 -34.674 -30.178 +0.01 -0.01    -0.750 OA
DOCKED: ATOM     29  V2  DVT A 531     -25.943 -33.999 -29.962 +0.02 +0.11    +1.500 Zn
DOCKED: ATOM     30  O1  DVT A 531     -27.028 -35.254 -30.232 +0.01 -0.02    -0.750 OA
DOCKED: ATOM     31  O17 DVT A 531     -26.569 -31.657 -27.612 +0.01 -0.03    -0.750 OA
DOCKED: ATOM     32  V4  DVT A 531     -24.727 -32.419 -27.470 +0.01 -0.00    +1.500 Zn
DOCKED: ATOM     33  O13 DVT A 531     -23.309 -33.389 -28.059 +0.00 +0.02    -0.750 OA
DOCKED: ATOM     34  O12 DVT A 531     -24.692 -32.866 -25.924 +0.00 +0.03    -0.750 OA
DOCKED: ATOM     35  O9  DVT A 531     -25.871 -33.926 -28.083 +0.01 +0.00    -0.750 OA
DOCKED: ATOM     36  V3  DVT A 531     -27.706 -33.290 -27.572 +0.01 +0.00    +1.500 Zn
DOCKED: ATOM     37  O3  DVT A 531     -28.569 -34.738 -28.247 +0.00 +0.01    -0.750 OA
DOCKED: ATOM     38  O10 DVT A 531     -27.624 -33.755 -26.019 +0.00 +0.03    -0.750 OA
DOCKED: ENDROOT
DOCKED: TORSDOF 0
DOCKED: TER
DOCKED: ENDMDL
________________________________________________________________________________


	BEGINNING GENETIC ALGORITHM DOCKING 3 of 50
Run: 3 Seed: 921557930 190275141 [ Run 3 of 50 GA/GALS ]
Beginning LAMARCKIAN GENETIC ALGORITHM (LGA), with a maximum of 2500000 energy evaluations.

Final-Value: -2.054


	FINAL GENETIC ALGORITHM DOCKED STATE
	_______________________________________________


Detailed state:  trans -26.870 -33.002 -29.497 quatxyzw -0.554792 0.194510 -0.733285 0.341562 center 38.166 -0.098 117.777 ntor 0
State:	-26.870 -33.002 -29.497  -0.590  0.207 -0.780 140.056  

DOCKED: MODEL        3
DOCKED: USER    Run = 3
DOCKED: USER    DPF = blind_docking.dpf
DOCKED: USER  
DOCKED: USER    Estimated Free Energy of Binding    =   -2.05 kcal/mol  [=(1)+(2)+(3)-(4)]
DOCKED: USER    Estimated Inhibition Constant, Ki   =   31.20 mM (millimolar)  [Temperature = 298.15 K]
DOCKED: USER    
DOCKED: USER    (1) Final Intermolecular Energy     =   -2.05 kcal/mol
DOCKED: USER        vdW + Hbond + desolv Energy     =   +0.09 kcal/mol
DOCKED: USER        Electrostatic Energy            =   -2.14 kcal/mol
DOCKED: USER    (2) Final Total Internal Energy     =   +0.00 kcal/mol
DOCKED: USER    (3) Torsional Free Energy           =   +0.00 kcal/mol
DOCKED: USER    (4) Unbound System's Energy  [=(2)] =   +0.00 kcal/mol
DOCKED: USER    
DOCKED: USER    
DOCKED: USER    NEWDPF move ../ligands/decavanadate.pdbqt
DOCKED: USER    NEWDPF about 38.166447 -0.097658 117.776763
DOCKED: USER    NEWDPF tran0 -26.869560 -33.002133 -29.496845
DOCKED: USER    NEWDPF quaternion0 -0.554792 0.194510 -0.733285 0.341562
DOCKED: USER    NEWDPF axisangle0 -0.590292 0.206956 -0.780208 140.055865
DOCKED: USER    NEWDPF quat0 -0.590292 0.206956 -0.780208 140.055865
DOCKED: USER  keepresnum = 1 
DOCKED: USER  
DOCKED: USER                              x       y       z     vdW  Elec       q    Type
DOCKED: USER                           _______ _______ _______ _____ _____    ______ ____
DOCKED: ROOT
DOCKED: ATOM      1  O28 DVT A 531     -30.283 -36.220 -31.001 +0.00 +0.02    -0.750 OA
DOCKED: ATOM      2  V10 DVT A 531     -29.501 -34.959 -30.456 +0.01 +0.03    +1.500 Zn
DOCKED: ATOM      3  O18 DVT A 531     -29.372 -33.722 -31.827 +0.02 -0.12    -0.750 OA
DOCKED: ATOM      4  O15 DVT A 531     -30.791 -33.809 -29.816 +0.01 -0.02    -0.750 OA
DOCKED: ATOM      5  V1  DVT A 531     -30.171 -32.264 -29.040 +0.02 +0.10    +1.500 Zn
DOCKED: ATOM      6  O5  DVT A 531     -31.509 -31.453 -28.601 +0.02 -0.03    -0.750 OA
DOCKED: ATOM      7  O27 DVT A 531     -29.211 -35.479 -28.666 +0.00 +0.02    -0.750 OA
DOCKED: ATOM      8  V9  DVT A 531     -28.326 -34.269 -27.606 +0.00 -0.03    +1.500 Zn
DOCKED: ATOM      9  O2  DVT A 531     -28.155 -33.245 -29.584 +0.01 -0.08    -0.750 OA
DOCKED: ATOM     10  O4  DVT A 531     -29.754 -33.182 -27.452 +0.00 +0.01    -0.750 OA
DOCKED: ATOM     11  O8  DVT A 531     -27.109 -32.710 -27.267 +0.01 -0.00    -0.750 OA
DOCKED: ATOM     12  O26 DVT A 531     -28.195 -35.113 -26.247 +0.00 +0.04    -0.750 OA
DOCKED: ATOM     13  O24 DVT A 531     -26.589 -34.966 -28.356 +0.00 +0.01    -0.750 OA
DOCKED: ATOM     14  V7  DVT A 531     -25.391 -33.666 -27.359 +0.00 -0.03    +1.500 Zn
DOCKED: ATOM     15  O11 DVT A 531     -24.490 -32.145 -27.115 +0.01 +0.01    -0.750 OA
DOCKED: ATOM     16  O25 DVT A 531     -25.373 -34.678 -26.114 +0.00 +0.04    -0.750 OA
DOCKED: ATOM     17  O21 DVT A 531     -23.975 -34.418 -28.265 +0.00 +0.02    -0.750 OA
DOCKED: ATOM     18  V6  DVT A 531     -23.530 -33.737 -29.948 +0.01 +0.03    +1.500 Zn
DOCKED: ATOM     19  O19 DVT A 531     -24.006 -32.954 -31.590 +0.02 -0.13    -0.750 OA
DOCKED: ATOM     20  O22 DVT A 531     -22.228 -34.640 -30.193 +0.00 +0.02    -0.750 OA
DOCKED: ATOM     21  O6  DVT A 531     -22.881 -32.159 -29.237 +0.01 -0.02    -0.750 OA
DOCKED: ATOM     22  V8  DVT A 531     -26.500 -34.477 -30.199 +0.02 +0.09    +1.500 Zn
DOCKED: ATOM     23  O20 DVT A 531     -24.984 -35.045 -30.609 +0.01 -0.02    -0.750 OA
DOCKED: ATOM     24  O23 DVT A 531     -27.607 -35.619 -30.717 +0.01 -0.01    -0.750 OA
DOCKED: ATOM     25  O16 DVT A 531     -25.566 -32.775 -29.410 +0.02 -0.08    -0.750 OA
DOCKED: ATOM     26  V5  DVT A 531     -24.214 -31.020 -28.599 +0.02 +0.10    +1.500 Zn
DOCKED: ATOM     27  O14 DVT A 531     -23.442 -29.735 -28.016 +0.01 -0.01    -0.750 OA
DOCKED: ATOM     28  O7  DVT A 531     -26.109 -30.378 -28.251 +0.02 -0.08    -0.750 OA
DOCKED: ATOM     29  V2  DVT A 531     -27.221 -31.522 -28.821 +0.03 +0.21    +1.500 Zn
DOCKED: ATOM     30  O1  DVT A 531     -28.738 -30.903 -28.446 +0.02 -0.08    -0.750 OA
DOCKED: ATOM     31  O17 DVT A 531     -26.724 -33.248 -31.680 +0.02 -0.24    -0.750 OA
DOCKED: ATOM     32  V4  DVT A 531     -25.357 -31.818 -31.394 +0.10 +0.76    +1.500 Zn
DOCKED: ATOM     33  O13 DVT A 531     -24.493 -30.554 -30.418 +0.02 -0.24    -0.750 OA
DOCKED: ATOM     34  O12 DVT A 531     -25.445 -31.019 -32.789 -0.15 -1.31    -0.750 OA
DOCKED: ATOM     35  O9  DVT A 531     -27.046 -31.084 -30.643 +0.02 -0.44    -0.750 OA
DOCKED: ATOM     36  V3  DVT A 531     -28.431 -32.235 -31.532 +0.09 +0.74    +1.500 Zn
DOCKED: ATOM     37  O3  DVT A 531     -29.842 -31.461 -30.693 +0.03 -0.21    -0.750 OA
DOCKED: ATOM     38  O10 DVT A 531     -28.483 -31.400 -32.922 -0.36 -1.24    -0.750 OA
DOCKED: ENDROOT
DOCKED: TORSDOF 0
DOCKED: TER
DOCKED: ENDMDL
________________________________________________________________________________


	BEGINNING GENETIC ALGORITHM DOCKING 4 of 50
Run: 4 Seed: 1583001718 976062558 [ Run 4 of 50 GA/GALS ]
Beginning LAMARCKIAN GENETIC ALGORITHM (LGA), with a maximum of 2500000 energy evaluations.

Final-Value: -2.012


	FINAL GENETIC ALGORITHM DOCKED STATE
	_______________________________________________


Detailed state:  trans -26.623 -34.013 -30.348 quatxyzw 0.264882 -0.184136 -0.610974 -0.722940 center 38.166 -0.098 117.777 ntor 0
State:	-26.623 -34.013 -30.348   0.383 -0.267 -0.884 -87.404  

DOCKED: MODEL        4
DOCKED: USER    Run = 4
DOCKED: USER    DPF = blind_docking.dpf
DOCKED: USER  
DOCKED: USER    Estimated Free Energy of Binding    =   -2.01 kcal/mol  [=(1)+(2)+(3)-(4)]
DOCKED: USER    Estimated Inhibition Constant, Ki   =   33.51 mM (millimolar)  [Temperature = 298.15 K]
DOCKED: USER    
DOCKED: USER    (1) Final Intermolecular Energy     =   -2.01 kcal/mol
DOCKED: USER        vdW + Hbond + desolv Energy     =   +0.08 kcal/mol
DOCKED: USER        Electrostatic Energy            =   -2.09 kcal/mol
DOCKED: USER    (2) Final Total Internal Energy     =   +0.00 kcal/mol
DOCKED: USER    (3) Torsional Free Energy           =   +0.00 kcal/mol
DOCKED: USER    (4) Unbound System's Energy  [=(2)] =   +0.00 kcal/mol
DOCKED: USER    
DOCKED: USER    
DOCKED: USER    NEWDPF move ../ligands/decavanadate.pdbqt
DOCKED: USER    NEWDPF about 38.166447 -0.097658 117.776763
DOCKED: USER    NEWDPF tran0 -26.622808 -34.013134 -30.347871
DOCKED: USER    NEWDPF quaternion0 0.264882 -0.184136 -0.610974 -0.722940
DOCKED: USER    NEWDPF axisangle0 0.383381 -0.266512 -0.884302 -87.404458
DOCKED: USER    NEWDPF quat0 0.383381 -0.266512 -0.884302 -87.404458
DOCKED: USER  keepresnum = 1 
DOCKED: USER  
DOCKED: USER                              x       y       z     vdW  Elec       q    Type
DOCKED: USER                           _______ _______ _______ _____ _____    ______ ____
DOCKED: ROOT
DOCKED: ATOM      1  O28 DVT A 531     -23.018 -31.607 -28.004 +0.01 +0.01    -0.750 OA
DOCKED: ATOM      2  V10 DVT A 531     -23.882 -32.484 -28.996 +0.02 +0.06    +1.500 Zn
DOCKED: ATOM      3  O18 DVT A 531     -24.224 -31.478 -30.511 +0.02 -0.17    -0.750 OA
DOCKED: ATOM      4  O15 DVT A 531     -22.671 -33.342 -30.089 +0.01 -0.01    -0.750 OA
DOCKED: ATOM      5  V1  DVT A 531     -23.386 -34.508 -31.315 +0.02 +0.03    +1.500 Zn
DOCKED: ATOM      6  O5  DVT A 531     -22.109 -35.083 -32.137 +0.01 +0.02    -0.750 OA
DOCKED: ATOM      7  O27 DVT A 531     -23.999 -34.095 -28.020 +0.00 +0.02    -0.750 OA
DOCKED: ATOM      8  V9  DVT A 531     -24.925 -35.462 -28.825 +0.00 -0.04    +1.500 Zn
DOCKED: ATOM      9  O2  DVT A 531     -25.329 -33.816 -30.280 +0.02 -0.07    -0.750 OA
DOCKED: ATOM     10  O4  DVT A 531     -23.604 -35.827 -29.992 +0.00 +0.03    -0.750 OA
DOCKED: ATOM     11  O8  DVT A 531     -26.264 -36.233 -30.105 +0.00 +0.02    -0.750 OA
DOCKED: ATOM     12  O26 DVT A 531     -24.881 -36.567 -27.662 +0.00 +0.04    -0.750 OA
DOCKED: ATOM     13  O24 DVT A 531     -26.632 -34.631 -28.144 +0.00 +0.01    -0.750 OA
DOCKED: ATOM     14  V7  DVT A 531     -27.882 -35.971 -29.015 +0.00 -0.04    +1.500 Zn
DOCKED: ATOM     15  O11 DVT A 531     -28.910 -36.629 -30.317 +0.00 +0.02    -0.750 OA
DOCKED: ATOM     16  O25 DVT A 531     -27.717 -36.919 -27.731 +0.00 +0.04    -0.750 OA
DOCKED: ATOM     17  O21 DVT A 531     -29.275 -34.962 -28.357 +0.00 +0.02    -0.750 OA
DOCKED: ATOM     18  V6  DVT A 531     -29.897 -33.526 -29.378 +0.01 +0.06    +1.500 Zn
DOCKED: ATOM     19  O19 DVT A 531     -29.612 -32.117 -30.591 +0.03 -0.17    -0.750 OA
DOCKED: ATOM     20  O22 DVT A 531     -31.117 -33.113 -28.424 +0.00 -0.00    -0.750 OA
DOCKED: ATOM     21  O6  DVT A 531     -30.649 -34.639 -30.649 +0.01 -0.01    -0.750 OA
DOCKED: ATOM     22  V8  DVT A 531     -26.892 -32.977 -29.061 +0.02 +0.13    +1.500 Zn
DOCKED: ATOM     23  O20 DVT A 531     -28.369 -32.497 -28.445 +0.01 -0.05    -0.750 OA
DOCKED: ATOM     24  O23 DVT A 531     -25.715 -32.142 -28.213 +0.01 -0.04    -0.750 OA
DOCKED: ATOM     25  O16 DVT A 531     -27.934 -34.207 -30.399 +0.01 -0.06    -0.750 OA
DOCKED: ATOM     26  V5  DVT A 531     -29.393 -35.489 -31.736 +0.01 +0.03    +1.500 Zn
DOCKED: ATOM     27  O14 DVT A 531     -30.247 -36.410 -32.743 +0.00 +0.02    -0.750 OA
DOCKED: ATOM     28  O7  DVT A 531     -27.552 -35.912 -32.480 +0.01 -0.02    -0.750 OA
DOCKED: ATOM     29  V2  DVT A 531     -26.374 -35.026 -31.645 +0.03 +0.11    +1.500 Zn
DOCKED: ATOM     30  O1  DVT A 531     -24.904 -35.484 -32.318 +0.01 -0.02    -0.750 OA
DOCKED: ATOM     31  O17 DVT A 531     -26.890 -31.847 -30.635 +0.02 -0.32    -0.750 OA
DOCKED: ATOM     32  V4  DVT A 531     -28.368 -32.540 -31.787 +0.09 +0.70    +1.500 Zn
DOCKED: ATOM     33  O13 DVT A 531     -29.285 -33.838 -32.666 +0.02 -0.14    -0.750 OA
DOCKED: ATOM     34  O12 DVT A 531     -28.454 -31.390 -32.911 -0.33 -1.26    -0.750 OA
DOCKED: ATOM     35  O9  DVT A 531     -26.713 -33.383 -32.497 +0.02 -0.28    -0.750 OA
DOCKED: ATOM     36  V3  DVT A 531     -25.284 -32.177 -31.764 +0.10 +0.73    +1.500 Zn
DOCKED: ATOM     37  O3  DVT A 531     -23.903 -33.127 -32.460 +0.03 -0.14    -0.750 OA
DOCKED: ATOM     38  O10 DVT A 531     -25.408 -31.042 -32.916 -0.16 -1.35    -0.750 OA
DOCKED: ENDROOT
DOCKED: TORSDOF 0
DOCKED: TER
DOCKED: ENDMDL
________________________________________________________________________________


	BEGINNING GENETIC ALGORITHM DOCKING 5 of 50
Run: 5 Seed: 1576714951 2097216295 [ Run 5 of 50 GA/GALS ]
Beginning LAMARCKIAN GENETIC ALGORITHM (LGA), with a maximum of 2500000 energy evaluations.

Final-Value: -1.869


	FINAL GENETIC ALGORITHM DOCKED STATE
	_______________________________________________


Detailed state:  trans 2.243 -11.415 -53.769 quatxyzw -0.023567 0.296005 -0.738650 0.605163 center 38.166 -0.098 117.777 ntor 0
State:	  2.243 -11.415 -53.769  -0.030  0.372 -0.928 105.519  

DOCKED: MODEL        5
DOCKED: USER    Run = 5
DOCKED: USER    DPF = blind_docking.dpf
DOCKED: USER  
DOCKED: USER    Estimated Free Energy of Binding    =   -1.87 kcal/mol  [=(1)+(2)+(3)-(4)]
DOCKED: USER    Estimated Inhibition Constant, Ki   =   42.62 mM (millimolar)  [Temperature = 298.15 K]
DOCKED: USER    
DOCKED: USER    (1) Final Intermolecular Energy     =   -1.87 kcal/mol
DOCKED: USER        vdW + Hbond + desolv Energy     =   -0.37 kcal/mol
DOCKED: USER        Electrostatic Energy            =   -1.50 kcal/mol
DOCKED: USER    (2) Final Total Internal Energy     =   +0.00 kcal/mol
DOCKED: USER    (3) Torsional Free Energy           =   +0.00 kcal/mol
DOCKED: USER    (4) Unbound System's Energy  [=(2)] =   +0.00 kcal/mol
DOCKED: USER    
DOCKED: USER    
DOCKED: USER    NEWDPF move ../ligands/decavanadate.pdbqt
DOCKED: USER    NEWDPF about 38.166447 -0.097658 117.776763
DOCKED: USER    NEWDPF tran0 2.243084 -11.415242 -53.769086
DOCKED: USER    NEWDPF quaternion0 -0.023567 0.296005 -0.738650 0.605163
DOCKED: USER    NEWDPF axisangle0 -0.029603 0.371818 -0.927834 105.518884
DOCKED: USER    NEWDPF quat0 -0.029603 0.371818 -0.927834 105.518884
DOCKED: USER  keepresnum = 1 
DOCKED: USER  
DOCKED: USER                              x       y       z     vdW  Elec       q    Type
DOCKED: USER                           _______ _______ _______ _____ _____    ______ ____
DOCKED: ROOT
DOCKED: ATOM      1  O28 DVT A 531      -1.173 -13.137 -56.874 +0.00 -0.25    -0.750 OA
DOCKED: ATOM      2  V10 DVT A 531      -0.076 -12.279 -56.125 +0.09 +0.56    +1.500 Zn
DOCKED: ATOM      3  O18 DVT A 531       1.532 -12.489 -57.017 +0.02 -0.05    -0.750 OA
DOCKED: ATOM      4  O15 DVT A 531      -0.083 -10.631 -56.948 +0.02 -0.08    -0.750 OA
DOCKED: ATOM      5  V1  DVT A 531       1.054  -9.376 -56.236 +0.03 +0.05    +1.500 Zn
DOCKED: ATOM      6  O5  DVT A 531       0.854  -8.058 -57.164 +0.01 +0.03    -0.750 OA
DOCKED: ATOM      7  O27 DVT A 531      -1.121 -11.497 -54.762 -0.48 -0.85    -0.750 OA
DOCKED: ATOM      8  V9  DVT A 531      -0.240 -10.360 -53.621 +0.11 +0.87    +1.500 Zn
DOCKED: ATOM      9  O2  DVT A 531       1.490 -11.133 -54.804 +0.02 -0.15    -0.750 OA
DOCKED: ATOM     10  O4  DVT A 531      -0.147  -9.029 -54.831 +0.02 -0.10    -0.750 OA
DOCKED: ATOM     11  O8  DVT A 531       1.379  -9.623 -52.693 +0.02 -0.13    -0.750 OA
DOCKED: ATOM     12  O26 DVT A 531      -1.419 -10.012 -52.588 -0.38 -0.67    -0.750 OA
DOCKED: ATOM     13  O24 DVT A 531       0.372 -11.972 -52.575 -0.25 -0.67    -0.750 OA
DOCKED: ATOM     14  V7  DVT A 531       1.496 -10.942 -51.237 +0.09 +0.39    +1.500 Zn
DOCKED: ATOM     15  O11 DVT A 531       2.979 -10.173 -50.609 +0.02 -0.03    -0.750 OA
DOCKED: ATOM     16  O25 DVT A 531       0.185 -10.734 -50.336 -0.01 -0.36    -0.750 OA
DOCKED: ATOM     17  O21 DVT A 531       1.983 -12.572 -50.530 +0.02 -0.14    -0.750 OA
DOCKED: ATOM     18  V6  DVT A 531       3.450 -13.463 -51.270 +0.05 +0.07    +1.500 Zn
DOCKED: ATOM     19  O19 DVT A 531       4.544 -13.909 -52.733 +0.01 +0.01    -0.750 OA
DOCKED: ATOM     20  O22 DVT A 531       3.478 -14.693 -50.242 +0.02 -0.01    -0.750 OA
DOCKED: ATOM     21  O6  DVT A 531       4.654 -12.243 -50.577 +0.01 +0.02    -0.750 OA
DOCKED: ATOM     22  V8  DVT A 531       1.594 -12.955 -53.663 +0.10 +0.48    +1.500 Zn
DOCKED: ATOM     23  O20 DVT A 531       2.052 -14.171 -52.614 +0.02 -0.14    -0.750 OA
DOCKED: ATOM     24  O23 DVT A 531       0.424 -13.595 -54.673 -0.11 -0.47    -0.750 OA
DOCKED: ATOM     25  O16 DVT A 531       2.993 -11.715 -52.717 +0.02 -0.07    -0.750 OA
DOCKED: ATOM     26  V5  DVT A 531       4.619 -10.587 -51.435 +0.01 -0.04    +1.500 Zn
DOCKED: ATOM     27  O14 DVT A 531       5.713  -9.684 -50.674 +0.00 +0.05    -0.750 OA
DOCKED: ATOM     28  O7  DVT A 531       4.067  -9.222 -52.833 +0.01 +0.02    -0.750 OA
DOCKED: ATOM     29  V2  DVT A 531       2.916  -9.897 -53.877 +0.03 +0.05    +1.500 Zn
DOCKED: ATOM     30  O1  DVT A 531       2.513  -8.673 -54.955 +0.01 +0.01    -0.750 OA
DOCKED: ATOM     31  O17 DVT A 531       3.078 -13.110 -54.900 +0.02 -0.04    -0.750 OA
DOCKED: ATOM     32  V4  DVT A 531       4.692 -12.548 -53.864 +0.02 -0.03    +1.500 Zn
DOCKED: ATOM     33  O13 DVT A 531       5.641 -11.426 -52.796 +0.00 +0.04    -0.750 OA
DOCKED: ATOM     34  O12 DVT A 531       5.873 -12.964 -54.876 +0.00 +0.04    -0.750 OA
DOCKED: ATOM     35  O9  DVT A 531       4.131 -10.931 -54.876 +0.01 +0.01    -0.750 OA
DOCKED: ATOM     36  V3  DVT A 531       2.985 -11.722 -56.323 +0.03 +0.01    +1.500 Zn
DOCKED: ATOM     37  O3  DVT A 531       2.547 -10.126 -57.069 +0.01 +0.02    -0.750 OA
DOCKED: ATOM     38  O10 DVT A 531       4.208 -12.127 -57.309 +0.00 +0.04    -0.750 OA
DOCKED: ENDROOT
DOCKED: TORSDOF 0
DOCKED: TER
DOCKED: ENDMDL
________________________________________________________________________________


	BEGINNING GENETIC ALGORITHM DOCKING 6 of 50
Run: 6 Seed: 478219224 1473236497 [ Run 6 of 50 GA/GALS ]
Beginning LAMARCKIAN GENETIC ALGORITHM (LGA), with a maximum of 2500000 energy evaluations.

Final-Value: -1.865


	FINAL GENETIC ALGORITHM DOCKED STATE
	_______________________________________________


Detailed state:  trans 2.220 -11.315 -53.953 quatxyzw -0.027516 0.299987 -0.748248 0.591080 center 38.166 -0.098 117.777 ntor 0
State:	  2.220 -11.315 -53.953  -0.034  0.372 -0.928 107.533  

DOCKED: MODEL        6
DOCKED: USER    Run = 6
DOCKED: USER    DPF = blind_docking.dpf
DOCKED: USER  
DOCKED: USER    Estimated Free Energy of Binding    =   -1.86 kcal/mol  [=(1)+(2)+(3)-(4)]
DOCKED: USER    Estimated Inhibition Constant, Ki   =   42.97 mM (millimolar)  [Temperature = 298.15 K]
DOCKED: USER    
DOCKED: USER    (1) Final Intermolecular Energy     =   -1.86 kcal/mol
DOCKED: USER        vdW + Hbond + desolv Energy     =   -0.42 kcal/mol
DOCKED: USER        Electrostatic Energy            =   -1.44 kcal/mol
DOCKED: USER    (2) Final Total Internal Energy     =   +0.00 kcal/mol
DOCKED: USER    (3) Torsional Free Energy           =   +0.00 kcal/mol
DOCKED: USER    (4) Unbound System's Energy  [=(2)] =   +0.00 kcal/mol
DOCKED: USER    
DOCKED: USER    
DOCKED: USER    NEWDPF move ../ligands/decavanadate.pdbqt
DOCKED: USER    NEWDPF about 38.166447 -0.097658 117.776763
DOCKED: USER    NEWDPF tran0 2.220228 -11.315190 -53.953100
DOCKED: USER    NEWDPF quaternion0 -0.027516 0.299987 -0.748248 0.591080
DOCKED: USER    NEWDPF axisangle0 -0.034113 0.371910 -0.927642 107.532606
DOCKED: USER    NEWDPF quat0 -0.034113 0.371910 -0.927642 107.532606
DOCKED: USER  keepresnum = 1 
DOCKED: USER  
DOCKED: USER                              x       y       z     vdW  Elec       q    Type
DOCKED: USER                           _______ _______ _______ _____ _____    ______ ____
DOCKED: ROOT
DOCKED: ATOM      1  O28 DVT A 531      -1.110 -13.136 -57.094 +0.01 -0.21    -0.750 OA
DOCKED: ATOM      2  V10 DVT A 531      -0.050 -12.245 -56.332 +0.09 +0.47    +1.500 Zn
DOCKED: ATOM      3  O18 DVT A 531       1.571 -12.394 -57.212 +0.02 -0.04    -0.750 OA
DOCKED: ATOM      4  O15 DVT A 531      -0.107 -10.593 -57.146 +0.02 -0.06    -0.750 OA
DOCKED: ATOM      5  V1  DVT A 531       0.980  -9.304 -56.418 +0.03 +0.03    +1.500 Zn
DOCKED: ATOM      6  O5  DVT A 531       0.742  -7.988 -57.340 +0.01 +0.03    -0.750 OA
DOCKED: ATOM      7  O27 DVT A 531      -1.131 -11.508 -54.973 -0.48 -0.74    -0.750 OA
DOCKED: ATOM      8  V9  DVT A 531      -0.299 -10.347 -53.819 +0.11 +0.83    +1.500 Zn
DOCKED: ATOM      9  O2  DVT A 531       1.466 -11.053 -54.993 +0.02 -0.14    -0.750 OA
DOCKED: ATOM     10  O4  DVT A 531      -0.243  -9.007 -55.020 +0.02 -0.10    -0.750 OA
DOCKED: ATOM     11  O8  DVT A 531       1.287  -9.560 -52.873 +0.02 -0.13    -0.750 OA
DOCKED: ATOM     12  O26 DVT A 531      -1.497 -10.046 -52.794 -0.38 -0.67    -0.750 OA
DOCKED: ATOM     13  O24 DVT A 531       0.360 -11.944 -52.777 -0.27 -0.67    -0.750 OA
DOCKED: ATOM     14  V7  DVT A 531       1.438 -10.883 -51.424 +0.09 +0.42    +1.500 Zn
DOCKED: ATOM     15  O11 DVT A 531       2.888 -10.066 -50.780 +0.02 -0.03    -0.750 OA
DOCKED: ATOM     16  O25 DVT A 531       0.113 -10.725 -50.532 -0.05 -0.41    -0.750 OA
DOCKED: ATOM     17  O21 DVT A 531       1.976 -12.499 -50.722 +0.02 -0.15    -0.750 OA
DOCKED: ATOM     18  V6  DVT A 531       3.478 -13.335 -51.456 +0.05 +0.07    +1.500 Zn
DOCKED: ATOM     19  O19 DVT A 531       4.598 -13.734 -52.912 +0.01 +0.01    -0.750 OA
DOCKED: ATOM     20  O22 DVT A 531       3.541 -14.569 -50.435 +0.02 -0.01    -0.750 OA
DOCKED: ATOM     21  O6  DVT A 531       4.634 -12.078 -50.747 +0.01 +0.02    -0.750 OA
DOCKED: ATOM     22  V8  DVT A 531       1.624 -12.877 -53.861 +0.09 +0.46    +1.500 Zn
DOCKED: ATOM     23  O20 DVT A 531       2.116 -14.083 -52.814 +0.02 -0.14    -0.750 OA
DOCKED: ATOM     24  O23 DVT A 531       0.485 -13.552 -54.884 -0.10 -0.41    -0.750 OA
DOCKED: ATOM     25  O16 DVT A 531       2.972 -11.595 -52.897 +0.02 -0.07    -0.750 OA
DOCKED: ATOM     26  V5  DVT A 531       4.549 -10.419 -51.595 +0.02 -0.04    +1.500 Zn
DOCKED: ATOM     27  O14 DVT A 531       5.604  -9.483 -50.822 +0.00 +0.05    -0.750 OA
DOCKED: ATOM     28  O7  DVT A 531       3.960  -9.065 -52.991 +0.01 +0.02    -0.750 OA
DOCKED: ATOM     29  V2  DVT A 531       2.841  -9.774 -54.047 +0.03 +0.05    +1.500 Zn
DOCKED: ATOM     30  O1  DVT A 531       2.404  -8.558 -55.122 +0.01 +0.01    -0.750 OA
DOCKED: ATOM     31  O17 DVT A 531       3.122 -12.974 -55.086 +0.02 -0.04    -0.750 OA
DOCKED: ATOM     32  V4  DVT A 531       4.708 -12.362 -54.035 +0.02 -0.03    +1.500 Zn
DOCKED: ATOM     33  O13 DVT A 531       5.608 -11.214 -52.954 +0.00 +0.04    -0.750 OA
DOCKED: ATOM     34  O12 DVT A 531       5.910 -12.732 -55.040 +0.00 +0.04    -0.750 OA
DOCKED: ATOM     35  O9  DVT A 531       4.098 -10.759 -55.042 +0.01 +0.02    -0.750 OA
DOCKED: ATOM     36  V3  DVT A 531       2.992 -11.581 -56.503 +0.02 +0.00    +1.500 Zn
DOCKED: ATOM     37  O3  DVT A 531       2.505  -9.997 -57.243 +0.01 +0.02    -0.750 OA
DOCKED: ATOM     38  O10 DVT A 531       4.236 -11.938 -57.481 +0.00 +0.04    -0.750 OA
DOCKED: ENDROOT
DOCKED: TORSDOF 0
DOCKED: TER
DOCKED: ENDMDL
________________________________________________________________________________


	BEGINNING GENETIC ALGORITHM DOCKING 7 of 50
Run: 7 Seed: 1072928711 174789834 [ Run 7 of 50 GA/GALS ]
Beginning LAMARCKIAN GENETIC ALGORITHM (LGA), with a maximum of 2500000 energy evaluations.

Final-Value: -1.865


	FINAL GENETIC ALGORITHM DOCKED STATE
	_______________________________________________


Detailed state:  trans 2.210 -11.375 -53.892 quatxyzw -0.018115 0.303281 -0.743598 0.595613 center 38.166 -0.098 117.777 ntor 0
State:	  2.210 -11.375 -53.892  -0.023  0.378 -0.926 106.887  

DOCKED: MODEL        7
DOCKED: USER    Run = 7
DOCKED: USER    DPF = blind_docking.dpf
DOCKED: USER  
DOCKED: USER    Estimated Free Energy of Binding    =   -1.86 kcal/mol  [=(1)+(2)+(3)-(4)]
DOCKED: USER    Estimated Inhibition Constant, Ki   =   42.96 mM (millimolar)  [Temperature = 298.15 K]
DOCKED: USER    
DOCKED: USER    (1) Final Intermolecular Energy     =   -1.86 kcal/mol
DOCKED: USER        vdW + Hbond + desolv Energy     =   -0.40 kcal/mol
DOCKED: USER        Electrostatic Energy            =   -1.47 kcal/mol
DOCKED: USER    (2) Final Total Internal Energy     =   +0.00 kcal/mol
DOCKED: USER    (3) Torsional Free Energy           =   +0.00 kcal/mol
DOCKED: USER    (4) Unbound System's Energy  [=(2)] =   +0.00 kcal/mol
DOCKED: USER    
DOCKED: USER    
DOCKED: USER    NEWDPF move ../ligands/decavanadate.pdbqt
DOCKED: USER    NEWDPF about 38.166447 -0.097658 117.776763
DOCKED: USER    NEWDPF tran0 2.210031 -11.374874 -53.892406
DOCKED: USER    NEWDPF quaternion0 -0.018115 0.303281 -0.743598 0.595613
DOCKED: USER    NEWDPF axisangle0 -0.022552 0.377557 -0.925712 106.887338
DOCKED: USER    NEWDPF quat0 -0.022552 0.377557 -0.925712 106.887338
DOCKED: USER  keepresnum = 1 
DOCKED: USER  
DOCKED: USER                              x       y       z     vdW  Elec       q    Type
DOCKED: USER                           _______ _______ _______ _____ _____    ______ ____
DOCKED: ROOT
DOCKED: ATOM      1  O28 DVT A 531      -1.105 -13.147 -57.077 +0.01 -0.21    -0.750 OA
DOCKED: ATOM      2  V10 DVT A 531      -0.041 -12.273 -56.302 +0.09 +0.49    +1.500 Zn
DOCKED: ATOM      3  O18 DVT A 531       1.591 -12.455 -57.157 +0.02 -0.04    -0.750 OA
DOCKED: ATOM      4  O15 DVT A 531      -0.055 -10.623 -57.122 +0.02 -0.06    -0.750 OA
DOCKED: ATOM      5  V1  DVT A 531       1.044  -9.351 -56.382 +0.03 +0.04    +1.500 Zn
DOCKED: ATOM      6  O5  DVT A 531       0.843  -8.034 -57.313 +0.01 +0.03    -0.750 OA
DOCKED: ATOM      7  O27 DVT A 531      -1.128 -11.511 -54.962 -0.48 -0.75    -0.750 OA
DOCKED: ATOM      8  V9  DVT A 531      -0.293 -10.361 -53.800 +0.11 +0.84    +1.500 Zn
DOCKED: ATOM      9  O2  DVT A 531       1.476 -11.103 -54.944 +0.02 -0.14    -0.750 OA
DOCKED: ATOM     10  O4  DVT A 531      -0.194  -9.026 -55.004 +0.02 -0.10    -0.750 OA
DOCKED: ATOM     11  O8  DVT A 531       1.293  -9.599 -52.833 +0.02 -0.13    -0.750 OA
DOCKED: ATOM     12  O26 DVT A 531      -1.500 -10.035 -52.793 -0.38 -0.66    -0.750 OA
DOCKED: ATOM     13  O24 DVT A 531       0.321 -11.965 -52.742 -0.25 -0.70    -0.750 OA
DOCKED: ATOM     14  V7  DVT A 531       1.398 -10.919 -51.377 +0.09 +0.43    +1.500 Zn
DOCKED: ATOM     15  O11 DVT A 531       2.853 -10.126 -50.714 +0.02 -0.03    -0.750 OA
DOCKED: ATOM     16  O25 DVT A 531       0.063 -10.734 -50.506 -0.05 -0.42    -0.750 OA
DOCKED: ATOM     17  O21 DVT A 531       1.896 -12.542 -50.661 +0.02 -0.15    -0.750 OA
DOCKED: ATOM     18  V6  DVT A 531       3.393 -13.407 -51.369 +0.05 +0.08    +1.500 Zn
DOCKED: ATOM     19  O19 DVT A 531       4.528 -13.832 -52.808 +0.01 +0.01    -0.750 OA
DOCKED: ATOM     20  O22 DVT A 531       3.419 -14.638 -50.343 +0.02 -0.01    -0.750 OA
DOCKED: ATOM     21  O6  DVT A 531       4.561 -12.169 -50.647 +0.01 +0.01    -0.750 OA
DOCKED: ATOM     22  V8  DVT A 531       1.584 -12.925 -53.804 +0.10 +0.48    +1.500 Zn
DOCKED: ATOM     23  O20 DVT A 531       2.038 -14.136 -52.746 +0.02 -0.15    -0.750 OA
DOCKED: ATOM     24  O23 DVT A 531       0.448 -13.583 -54.841 -0.10 -0.43    -0.750 OA
DOCKED: ATOM     25  O16 DVT A 531       2.941 -11.664 -52.824 +0.02 -0.07    -0.750 OA
DOCKED: ATOM     26  V5  DVT A 531       4.519 -10.512 -51.503 +0.02 -0.04    +1.500 Zn
DOCKED: ATOM     27  O14 DVT A 531       5.580  -9.592 -50.717 +0.00 +0.05    -0.750 OA
DOCKED: ATOM     28  O7  DVT A 531       3.976  -9.153 -52.912 +0.01 +0.02    -0.750 OA
DOCKED: ATOM     29  V2  DVT A 531       2.860  -9.845 -53.983 +0.03 +0.05    +1.500 Zn
DOCKED: ATOM     30  O1  DVT A 531       2.461  -8.626 -55.068 +0.01 +0.01    -0.750 OA
DOCKED: ATOM     31  O17 DVT A 531       3.098 -13.054 -55.006 +0.02 -0.04    -0.750 OA
DOCKED: ATOM     32  V4  DVT A 531       4.679 -12.467 -53.933 +0.02 -0.03    +1.500 Zn
DOCKED: ATOM     33  O13 DVT A 531       5.584 -11.331 -52.843 +0.00 +0.03    -0.750 OA
DOCKED: ATOM     34  O12 DVT A 531       5.889 -12.862 -54.918 +0.00 +0.04    -0.750 OA
DOCKED: ATOM     35  O9  DVT A 531       4.114 -10.857 -54.955 +0.01 +0.01    -0.750 OA
DOCKED: ATOM     36  V3  DVT A 531       3.015 -11.664 -56.429 +0.02 +0.01    +1.500 Zn
DOCKED: ATOM     37  O3  DVT A 531       2.568 -10.075 -57.182 +0.01 +0.02    -0.750 OA
DOCKED: ATOM     38  O10 DVT A 531       4.266 -12.048 -57.388 +0.00 +0.04    -0.750 OA
DOCKED: ENDROOT
DOCKED: TORSDOF 0
DOCKED: TER
DOCKED: ENDMDL
________________________________________________________________________________


	BEGINNING GENETIC ALGORITHM DOCKING 8 of 50
Run: 8 Seed: 685498847 1023320811 [ Run 8 of 50 GA/GALS ]
Beginning LAMARCKIAN GENETIC ALGORITHM (LGA), with a maximum of 2500000 energy evaluations.

Final-Value: -2.066


	FINAL GENETIC ALGORITHM DOCKED STATE
	_______________________________________________


Detailed state:  trans -26.787 -33.267 -29.749 quatxyzw 0.578756 -0.219215 0.716874 -0.321058 center 38.166 -0.098 117.777 ntor 0
State:	-26.787 -33.267 -29.749   0.611 -0.231  0.757 -142.546  

DOCKED: MODEL        8
DOCKED: USER    Run = 8
DOCKED: USER    DPF = blind_docking.dpf
DOCKED: USER  
DOCKED: USER    Estimated Free Energy of Binding    =   -2.07 kcal/mol  [=(1)+(2)+(3)-(4)]
DOCKED: USER    Estimated Inhibition Constant, Ki   =   30.58 mM (millimolar)  [Temperature = 298.15 K]
DOCKED: USER    
DOCKED: USER    (1) Final Intermolecular Energy     =   -2.07 kcal/mol
DOCKED: USER        vdW + Hbond + desolv Energy     =   +0.16 kcal/mol
DOCKED: USER        Electrostatic Energy            =   -2.23 kcal/mol
DOCKED: USER    (2) Final Total Internal Energy     =   +0.00 kcal/mol
DOCKED: USER    (3) Torsional Free Energy           =   +0.00 kcal/mol
DOCKED: USER    (4) Unbound System's Energy  [=(2)] =   +0.00 kcal/mol
DOCKED: USER    
DOCKED: USER    
DOCKED: USER    NEWDPF move ../ligands/decavanadate.pdbqt
DOCKED: USER    NEWDPF about 38.166447 -0.097658 117.776763
DOCKED: USER    NEWDPF tran0 -26.786567 -33.266838 -29.748727
DOCKED: USER    NEWDPF quaternion0 0.578756 -0.219215 0.716874 -0.321058
DOCKED: USER    NEWDPF axisangle0 0.611108 -0.231469 0.756948 -142.546203
DOCKED: USER    NEWDPF quat0 0.611108 -0.231469 0.756948 -142.546203
DOCKED: USER  keepresnum = 1 
DOCKED: USER  
DOCKED: USER                              x       y       z     vdW  Elec       q    Type
DOCKED: USER                           _______ _______ _______ _____ _____    ______ ____
DOCKED: ROOT
DOCKED: ATOM      1  O28 DVT A 531     -30.243 -36.358 -31.413 +0.00 +0.02    -0.750 OA
DOCKED: ATOM      2  V10 DVT A 531     -29.445 -35.144 -30.790 +0.01 +0.03    +1.500 Zn
DOCKED: ATOM      3  O18 DVT A 531     -29.355 -33.799 -32.058 +0.02 -0.12    -0.750 OA
DOCKED: ATOM      4  O15 DVT A 531     -30.716 -34.053 -30.021 +0.01 -0.01    -0.750 OA
DOCKED: ATOM      5  V1  DVT A 531     -30.074 -32.575 -29.139 +0.02 +0.09    +1.500 Zn
DOCKED: ATOM      6  O5  DVT A 531     -31.398 -31.805 -28.598 +0.01 -0.02    -0.750 OA
DOCKED: ATOM      7  O27 DVT A 531     -29.104 -35.808 -29.057 +0.00 +0.02    -0.750 OA
DOCKED: ATOM      8  V9  DVT A 531     -28.189 -34.686 -27.927 +0.00 -0.03    +1.500 Zn
DOCKED: ATOM      9  O2  DVT A 531     -28.074 -33.504 -29.819 +0.02 -0.08    -0.750 OA
DOCKED: ATOM     10  O4  DVT A 531     -29.612 -33.619 -27.645 +0.00 +0.01    -0.750 OA
DOCKED: ATOM     11  O8  DVT A 531     -26.962 -33.158 -27.496 +0.01 -0.00    -0.750 OA
DOCKED: ATOM     12  O26 DVT A 531     -28.019 -35.638 -26.646 +0.00 +0.04    -0.750 OA
DOCKED: ATOM     13  O24 DVT A 531     -26.474 -35.317 -28.780 +0.00 +0.01    -0.750 OA
DOCKED: ATOM     14  V7  DVT A 531     -25.248 -34.100 -27.716 +0.00 -0.03    +1.500 Zn
DOCKED: ATOM     15  O11 DVT A 531     -24.340 -32.603 -27.373 +0.01 +0.01    -0.750 OA
DOCKED: ATOM     16  O25 DVT A 531     -25.195 -35.211 -26.558 +0.00 +0.04    -0.750 OA
DOCKED: ATOM     17  O21 DVT A 531     -23.858 -34.773 -28.720 +0.00 +0.02    -0.750 OA
DOCKED: ATOM     18  V6  DVT A 531     -23.461 -33.956 -30.354 +0.02 +0.03    +1.500 Zn
DOCKED: ATOM     19  O19 DVT A 531     -23.983 -33.042 -31.912 +0.03 -0.13    -0.750 OA
DOCKED: ATOM     20  O22 DVT A 531     -22.168 -34.833 -30.709 +0.00 +0.02    -0.750 OA
DOCKED: ATOM     21  O6  DVT A 531     -22.792 -32.440 -29.535 +0.01 -0.02    -0.750 OA
DOCKED: ATOM     22  V8  DVT A 531     -26.438 -34.679 -30.579 +0.02 +0.09    +1.500 Zn
DOCKED: ATOM     23  O20 DVT A 531     -24.934 -35.208 -31.078 +0.01 -0.02    -0.750 OA
DOCKED: ATOM     24  O23 DVT A 531     -27.560 -35.777 -31.157 +0.01 -0.01    -0.750 OA
DOCKED: ATOM     25  O16 DVT A 531     -25.481 -33.045 -29.681 +0.02 -0.08    -0.750 OA
DOCKED: ATOM     26  V5  DVT A 531     -24.106 -31.360 -28.768 +0.02 +0.10    +1.500 Zn
DOCKED: ATOM     27  O14 DVT A 531     -23.317 -30.125 -28.104 +0.01 -0.01    -0.750 OA
DOCKED: ATOM     28  O7  DVT A 531     -25.990 -30.752 -28.315 +0.02 -0.08    -0.750 OA
DOCKED: ATOM     29  V2  DVT A 531     -27.118 -31.848 -28.945 +0.03 +0.21    +1.500 Zn
DOCKED: ATOM     30  O1  DVT A 531     -28.623 -31.264 -28.477 +0.01 -0.08    -0.750 OA
DOCKED: ATOM     31  O17 DVT A 531     -26.703 -33.333 -31.948 +0.02 -0.25    -0.750 OA
DOCKED: ATOM     32  V4  DVT A 531     -25.328 -31.929 -31.585 +0.10 +0.79    +1.500 Zn
DOCKED: ATOM     33  O13 DVT A 531     -24.436 -30.747 -30.534 +0.02 -0.24    -0.750 OA
DOCKED: ATOM     34  O12 DVT A 531     -25.455 -31.019 -32.907 -0.10 -1.40    -0.750 OA
DOCKED: ATOM     35  O9  DVT A 531     -26.995 -31.262 -30.729 +0.02 -0.44    -0.750 OA
DOCKED: ATOM     36  V3  DVT A 531     -28.405 -32.339 -31.669 +0.09 +0.75    +1.500 Zn
DOCKED: ATOM     37  O3  DVT A 531     -29.792 -31.639 -30.730 +0.03 -0.20    -0.750 OA
DOCKED: ATOM     38  O10 DVT A 531     -28.496 -31.394 -32.984 -0.34 -1.27    -0.750 OA
DOCKED: ENDROOT
DOCKED: TORSDOF 0
DOCKED: TER
DOCKED: ENDMDL
________________________________________________________________________________


	BEGINNING GENETIC ALGORITHM DOCKING 9 of 50
Run: 9 Seed: 1375013325 343677070 [ Run 9 of 50 GA/GALS ]
Beginning LAMARCKIAN GENETIC ALGORITHM (LGA), with a maximum of 2500000 energy evaluations.

Final-Value: -2.102


	FINAL GENETIC ALGORITHM DOCKED STATE
	_______________________________________________


Detailed state:  trans -26.233 -32.534 -29.704 quatxyzw 0.542449 -0.091327 0.759240 -0.347798 center 38.166 -0.098 117.777 ntor 0
State:	-26.233 -32.534 -29.704   0.579 -0.097  0.810 -139.295  

DOCKED: MODEL        9
DOCKED: USER    Run = 9
DOCKED: USER    DPF = blind_docking.dpf
DOCKED: USER  
DOCKED: USER    Estimated Free Energy of Binding    =   -2.10 kcal/mol  [=(1)+(2)+(3)-(4)]
DOCKED: USER    Estimated Inhibition Constant, Ki   =   28.81 mM (millimolar)  [Temperature = 298.15 K]
DOCKED: USER    
DOCKED: USER    (1) Final Intermolecular Energy     =   -2.10 kcal/mol
DOCKED: USER        vdW + Hbond + desolv Energy     =   +0.06 kcal/mol
DOCKED: USER        Electrostatic Energy            =   -2.16 kcal/mol
DOCKED: USER    (2) Final Total Internal Energy     =   +0.00 kcal/mol
DOCKED: USER    (3) Torsional Free Energy           =   +0.00 kcal/mol
DOCKED: USER    (4) Unbound System's Energy  [=(2)] =   +0.00 kcal/mol
DOCKED: USER    
DOCKED: USER    
DOCKED: USER    NEWDPF move ../ligands/decavanadate.pdbqt
DOCKED: USER    NEWDPF about 38.166447 -0.097658 117.776763
DOCKED: USER    NEWDPF tran0 -26.232831 -32.534082 -29.704197
DOCKED: USER    NEWDPF quaternion0 0.542449 -0.091327 0.759240 -0.347798
DOCKED: USER    NEWDPF axisangle0 0.578569 -0.097408 0.809796 -139.294652
DOCKED: USER    NEWDPF quat0 0.578569 -0.097408 0.809796 -139.294652
DOCKED: USER  keepresnum = 1 
DOCKED: USER  
DOCKED: USER                              x       y       z     vdW  Elec       q    Type
DOCKED: USER                           _______ _______ _______ _____ _____    ______ ____
DOCKED: ROOT
DOCKED: ATOM      1  O28 DVT A 531     -29.259 -36.340 -30.500 +0.00 +0.02    -0.750 OA
DOCKED: ATOM      2  V10 DVT A 531     -28.625 -34.920 -30.212 +0.01 +0.04    +1.500 Zn
DOCKED: ATOM      3  O18 DVT A 531     -28.667 -33.939 -31.781 +0.02 -0.13    -0.750 OA
DOCKED: ATOM      4  O15 DVT A 531     -30.034 -33.832 -29.735 +0.01 -0.03    -0.750 OA
DOCKED: ATOM      5  V1  DVT A 531     -29.592 -32.113 -29.263 +0.02 +0.15    +1.500 Zn
DOCKED: ATOM      6  O5  DVT A 531     -31.010 -31.396 -28.924 +0.02 -0.04    -0.750 OA
DOCKED: ATOM      7  O27 DVT A 531     -28.247 -35.078 -28.370 +0.00 +0.02    -0.750 OA
DOCKED: ATOM      8  V9  DVT A 531     -27.498 -33.605 -27.570 +0.01 -0.01    +1.500 Zn
DOCKED: ATOM      9  O2  DVT A 531     -27.481 -32.935 -29.701 +0.02 -0.11    -0.750 OA
DOCKED: ATOM     10  O4  DVT A 531     -29.043 -32.680 -27.556 +0.01 -0.01    -0.750 OA
DOCKED: ATOM     11  O8  DVT A 531     -26.471 -31.880 -27.552 +0.01 -0.02    -0.750 OA
DOCKED: ATOM     12  O26 DVT A 531     -27.245 -34.173 -26.090 +0.00 +0.04    -0.750 OA
DOCKED: ATOM     13  O24 DVT A 531     -25.701 -34.219 -28.249 +0.01 +0.00    -0.750 OA
DOCKED: ATOM     14  V7  DVT A 531     -24.653 -32.634 -27.539 +0.01 -0.01    +1.500 Zn
DOCKED: ATOM     15  O11 DVT A 531     -23.937 -31.000 -27.596 +0.01 -0.01    -0.750 OA
DOCKED: ATOM     16  O25 DVT A 531     -24.494 -33.400 -26.138 +0.00 +0.04    -0.750 OA
DOCKED: ATOM     17  O21 DVT A 531     -23.170 -33.366 -28.351 +0.00 +0.01    -0.750 OA
DOCKED: ATOM     18  V6  DVT A 531     -22.836 -32.947 -30.142 +0.02 +0.04    +1.500 Zn
DOCKED: ATOM     19  O19 DVT A 531     -23.428 -32.528 -31.877 +0.03 -0.13    -0.750 OA
DOCKED: ATOM     20  O22 DVT A 531     -21.440 -33.723 -30.273 +0.00 +0.03    -0.750 OA
DOCKED: ATOM     21  O6  DVT A 531     -22.371 -31.204 -29.741 +0.01 -0.03    -0.750 OA
DOCKED: ATOM     22  V8  DVT A 531     -25.700 -34.057 -30.151 +0.03 +0.11    +1.500 Zn
DOCKED: ATOM     23  O20 DVT A 531     -24.133 -34.511 -30.512 +0.01 -0.02    -0.750 OA
DOCKED: ATOM     24  O23 DVT A 531     -26.670 -35.393 -30.422 +0.01 -0.01    -0.750 OA
DOCKED: ATOM     25  O16 DVT A 531     -24.965 -32.146 -29.706 +0.02 -0.11    -0.750 OA
DOCKED: ATOM     26  V5  DVT A 531     -23.821 -30.132 -29.263 +0.04 +0.17    +1.500 Zn
DOCKED: ATOM     27  O14 DVT A 531     -23.200 -28.683 -28.940 +0.02 -0.04    -0.750 OA
DOCKED: ATOM     28  O7  DVT A 531     -25.774 -29.661 -28.963 +0.03 -0.15    -0.750 OA
DOCKED: ATOM     29  V2  DVT A 531     -26.749 -31.008 -29.284 +0.04 +0.35    +1.500 Zn
DOCKED: ATOM     30  O1  DVT A 531     -28.323 -30.511 -28.968 +0.02 -0.14    -0.750 OA
DOCKED: ATOM     31  O17 DVT A 531     -26.092 -33.144 -31.815 +0.02 -0.25    -0.750 OA
DOCKED: ATOM     32  V4  DVT A 531     -24.903 -31.538 -31.832 +0.13 +0.92    +1.500 Zn
DOCKED: ATOM     33  O13 DVT A 531     -24.182 -30.030 -31.123 +0.02 -0.34    -0.750 OA
DOCKED: ATOM     34  O12 DVT A 531     -25.107 -31.015 -33.341 -0.40 -1.30    -0.750 OA
DOCKED: ATOM     35  O9  DVT A 531     -26.655 -30.883 -31.160 +0.03 -0.67    -0.750 OA
DOCKED: ATOM     36  V3  DVT A 531     -27.906 -32.325 -31.783 +0.09 +0.88    +1.500 Zn
DOCKED: ATOM     37  O3  DVT A 531     -29.387 -31.583 -31.042 +0.02 -0.29    -0.750 OA
DOCKED: ATOM     38  O10 DVT A 531     -28.079 -31.762 -33.295 -0.28 -1.15    -0.750 OA
DOCKED: ENDROOT
DOCKED: TORSDOF 0
DOCKED: TER
DOCKED: ENDMDL
________________________________________________________________________________


	BEGINNING GENETIC ALGORITHM DOCKING 10 of 50
Run: 10 Seed: 874591000 383774402 [ Run 10 of 50 GA/GALS ]
Beginning LAMARCKIAN GENETIC ALGORITHM (LGA), with a maximum of 2500000 energy evaluations.

Final-Value: -2.077


	FINAL GENETIC ALGORITHM DOCKED STATE
	_______________________________________________


Detailed state:  trans -26.798 -32.848 -30.028 quatxyzw 0.492534 -0.148079 0.799482 -0.310342 center 38.166 -0.098 117.777 ntor 0
State:	-26.798 -32.848 -30.028   0.518 -0.156  0.841 -143.840  

DOCKED: MODEL       10
DOCKED: USER    Run = 10
DOCKED: USER    DPF = blind_docking.dpf
DOCKED: USER  
DOCKED: USER    Estimated Free Energy of Binding    =   -2.08 kcal/mol  [=(1)+(2)+(3)-(4)]
DOCKED: USER    Estimated Inhibition Constant, Ki   =   30.02 mM (millimolar)  [Temperature = 298.15 K]
DOCKED: USER    
DOCKED: USER    (1) Final Intermolecular Energy     =   -2.08 kcal/mol
DOCKED: USER        vdW + Hbond + desolv Energy     =   +0.13 kcal/mol
DOCKED: USER        Electrostatic Energy            =   -2.21 kcal/mol
DOCKED: USER    (2) Final Total Internal Energy     =   +0.00 kcal/mol
DOCKED: USER    (3) Torsional Free Energy           =   +0.00 kcal/mol
DOCKED: USER    (4) Unbound System's Energy  [=(2)] =   +0.00 kcal/mol
DOCKED: USER    
DOCKED: USER    
DOCKED: USER    NEWDPF move ../ligands/decavanadate.pdbqt
DOCKED: USER    NEWDPF about 38.166447 -0.097658 117.776763
DOCKED: USER    NEWDPF tran0 -26.797668 -32.847760 -30.028439
DOCKED: USER    NEWDPF quaternion0 0.492534 -0.148079 0.799482 -0.310342
DOCKED: USER    NEWDPF axisangle0 0.518116 -0.155770 0.841006 -143.840324
DOCKED: USER    NEWDPF quat0 0.518116 -0.155770 0.841006 -143.840324
DOCKED: USER  keepresnum = 1 
DOCKED: USER  
DOCKED: USER                              x       y       z     vdW  Elec       q    Type
DOCKED: USER                           _______ _______ _______ _____ _____    ______ ____
DOCKED: ROOT
DOCKED: ATOM      1  O28 DVT A 531     -29.571 -36.593 -31.628 +0.00 +0.02    -0.750 OA
DOCKED: ATOM      2  V10 DVT A 531     -29.023 -35.199 -31.122 +0.01 +0.05    +1.500 Zn
DOCKED: ATOM      3  O18 DVT A 531     -28.827 -34.087 -32.589 +0.02 -0.13    -0.750 OA
DOCKED: ATOM      4  O15 DVT A 531     -30.513 -34.165 -30.796 +0.01 -0.03    -0.750 OA
DOCKED: ATOM      5  V1  DVT A 531     -30.192 -32.490 -30.117 +0.03 +0.17    +1.500 Zn
DOCKED: ATOM      6  O5  DVT A 531     -31.661 -31.814 -29.958 +0.03 -0.05    -0.750 OA
DOCKED: ATOM      7  O27 DVT A 531     -28.949 -35.511 -29.263 +0.00 +0.01    -0.750 OA
DOCKED: ATOM      8  V9  DVT A 531     -28.374 -34.106 -28.230 +0.01 +0.00    +1.500 Zn
DOCKED: ATOM      9  O2  DVT A 531     -28.021 -33.256 -30.265 +0.02 -0.12    -0.750 OA
DOCKED: ATOM     10  O4  DVT A 531     -29.919 -33.197 -28.395 +0.01 -0.01    -0.750 OA
DOCKED: ATOM     11  O8  DVT A 531     -27.401 -32.382 -27.898 +0.01 -0.03    -0.750 OA
DOCKED: ATOM     12  O26 DVT A 531     -28.355 -34.797 -26.781 +0.00 +0.03    -0.750 OA
DOCKED: ATOM     13  O24 DVT A 531     -26.477 -34.647 -28.651 +0.01 +0.00    -0.750 OA
DOCKED: ATOM     14  V7  DVT A 531     -25.594 -33.121 -27.647 +0.01 +0.00    +1.500 Zn
DOCKED: ATOM     15  O11 DVT A 531     -24.913 -31.483 -27.449 +0.01 -0.01    -0.750 OA
DOCKED: ATOM     16  O25 DVT A 531     -25.651 -34.003 -26.308 +0.00 +0.03    -0.750 OA
DOCKED: ATOM     17  O21 DVT A 531     -23.983 -33.770 -28.261 +0.01 +0.01    -0.750 OA
DOCKED: ATOM     18  V6  DVT A 531     -23.368 -33.198 -29.930 +0.02 +0.05    +1.500 Zn
DOCKED: ATOM     19  O19 DVT A 531     -23.674 -32.636 -31.698 +0.03 -0.13    -0.750 OA
DOCKED: ATOM     20  O22 DVT A 531     -21.953 -33.950 -29.892 +0.00 +0.02    -0.750 OA
DOCKED: ATOM     21  O6  DVT A 531     -23.011 -31.492 -29.314 +0.01 -0.03    -0.750 OA
DOCKED: ATOM     22  V8  DVT A 531     -26.167 -34.323 -30.506 +0.03 +0.12    +1.500 Zn
DOCKED: ATOM     23  O20 DVT A 531     -24.552 -34.733 -30.639 +0.01 -0.02    -0.750 OA
DOCKED: ATOM     24  O23 DVT A 531     -27.051 -35.638 -31.044 +0.01 -0.02    -0.750 OA
DOCKED: ATOM     25  O16 DVT A 531     -25.555 -32.452 -29.788 +0.02 -0.12    -0.750 OA
DOCKED: ATOM     26  V5  DVT A 531     -24.543 -30.475 -28.995 +0.04 +0.19    +1.500 Zn
DOCKED: ATOM     27  O14 DVT A 531     -24.013 -29.055 -28.455 +0.02 -0.05    -0.750 OA
DOCKED: ATOM     28  O7  DVT A 531     -26.527 -30.045 -28.985 +0.02 -0.17    -0.750 OA
DOCKED: ATOM     29  V2  DVT A 531     -27.408 -31.367 -29.574 +0.05 +0.39    +1.500 Zn
DOCKED: ATOM     30  O1  DVT A 531     -29.022 -30.910 -29.483 +0.03 -0.16    -0.750 OA
DOCKED: ATOM     31  O17 DVT A 531     -26.299 -33.274 -32.130 +0.02 -0.26    -0.750 OA
DOCKED: ATOM     32  V4  DVT A 531     -25.157 -31.664 -31.816 +0.12 +0.95    +1.500 Zn
DOCKED: ATOM     33  O13 DVT A 531     -24.594 -30.217 -30.875 +0.01 -0.36    -0.750 OA
DOCKED: ATOM     34  O12 DVT A 531     -25.121 -31.015 -33.289 -0.41 -1.30    -0.750 OA
DOCKED: ATOM     35  O9  DVT A 531     -27.010 -31.081 -31.391 +0.02 -0.74    -0.750 OA
DOCKED: ATOM     36  V3  DVT A 531     -28.110 -32.474 -32.332 +0.11 +0.96    +1.500 Zn
DOCKED: ATOM     37  O3  DVT A 531     -29.708 -31.808 -31.786 +0.01 -0.32    -0.750 OA
DOCKED: ATOM     38  O10 DVT A 531     -28.044 -31.784 -33.799 -0.23 -1.17    -0.750 OA
DOCKED: ENDROOT
DOCKED: TORSDOF 0
DOCKED: TER
DOCKED: ENDMDL
________________________________________________________________________________


	BEGINNING GENETIC ALGORITHM DOCKING 11 of 50
Run: 11 Seed: 1853197753 452496619 [ Run 11 of 50 GA/GALS ]
Beginning LAMARCKIAN GENETIC ALGORITHM (LGA), with a maximum of 2500000 energy evaluations.

Final-Value: -2.104


	FINAL GENETIC ALGORITHM DOCKED STATE
	_______________________________________________


Detailed state:  trans -26.341 -32.549 -29.693 quatxyzw 0.533019 -0.097782 0.765044 -0.347905 center 38.166 -0.098 117.777 ntor 0
State:	-26.341 -32.549 -29.693   0.569 -0.104  0.816 -139.282  

DOCKED: MODEL       11
DOCKED: USER    Run = 11
DOCKED: USER    DPF = blind_docking.dpf
DOCKED: USER  
DOCKED: USER    Estimated Free Energy of Binding    =   -2.10 kcal/mol  [=(1)+(2)+(3)-(4)]
DOCKED: USER    Estimated Inhibition Constant, Ki   =   28.67 mM (millimolar)  [Temperature = 298.15 K]
DOCKED: USER    
DOCKED: USER    (1) Final Intermolecular Energy     =   -2.10 kcal/mol
DOCKED: USER        vdW + Hbond + desolv Energy     =   +0.05 kcal/mol
DOCKED: USER        Electrostatic Energy            =   -2.15 kcal/mol
DOCKED: USER    (2) Final Total Internal Energy     =   +0.00 kcal/mol
DOCKED: USER    (3) Torsional Free Energy           =   +0.00 kcal/mol
DOCKED: USER    (4) Unbound System's Energy  [=(2)] =   +0.00 kcal/mol
DOCKED: USER    
DOCKED: USER    
DOCKED: USER    NEWDPF move ../ligands/decavanadate.pdbqt
DOCKED: USER    NEWDPF about 38.166447 -0.097658 117.776763
DOCKED: USER    NEWDPF tran0 -26.340692 -32.549134 -29.692547
DOCKED: USER    NEWDPF quaternion0 0.533019 -0.097782 0.765044 -0.347905
DOCKED: USER    NEWDPF axisangle0 0.568536 -0.104298 0.816020 -139.281572
DOCKED: USER    NEWDPF quat0 0.568536 -0.104298 0.816020 -139.281572
DOCKED: USER  keepresnum = 1 
DOCKED: USER  
DOCKED: USER                              x       y       z     vdW  Elec       q    Type
DOCKED: USER                           _______ _______ _______ _____ _____    ______ ____
DOCKED: ROOT
DOCKED: ATOM      1  O28 DVT A 531     -29.364 -36.338 -30.572 +0.00 +0.02    -0.750 OA
DOCKED: ATOM      2  V10 DVT A 531     -28.731 -34.923 -30.265 +0.01 +0.04    +1.500 Zn
DOCKED: ATOM      3  O18 DVT A 531     -28.728 -33.938 -31.832 +0.02 -0.13    -0.750 OA
DOCKED: ATOM      4  O15 DVT A 531     -30.146 -33.828 -29.821 +0.01 -0.03    -0.750 OA
DOCKED: ATOM      5  V1  DVT A 531     -29.708 -32.112 -29.335 +0.02 +0.16    +1.500 Zn
DOCKED: ATOM      6  O5  DVT A 531     -31.130 -31.389 -29.030 +0.02 -0.04    -0.750 OA
DOCKED: ATOM      7  O27 DVT A 531     -28.400 -35.086 -28.415 +0.00 +0.02    -0.750 OA
DOCKED: ATOM      8  V9  DVT A 531     -27.664 -33.618 -27.593 +0.01 -0.01    +1.500 Zn
DOCKED: ATOM      9  O2  DVT A 531     -27.590 -32.944 -29.722 +0.02 -0.11    -0.750 OA
DOCKED: ATOM     10  O4  DVT A 531     -29.205 -32.686 -27.616 +0.01 -0.01    -0.750 OA
DOCKED: ATOM     11  O8  DVT A 531     -26.630 -31.899 -27.545 +0.01 -0.02    -0.750 OA
DOCKED: ATOM     12  O26 DVT A 531     -27.451 -34.191 -26.109 +0.00 +0.04    -0.750 OA
DOCKED: ATOM     13  O24 DVT A 531     -25.853 -34.240 -28.229 +0.01 +0.00    -0.750 OA
DOCKED: ATOM     14  V7  DVT A 531     -24.816 -32.661 -27.488 +0.01 -0.01    +1.500 Zn
DOCKED: ATOM     15  O11 DVT A 531     -24.091 -31.030 -27.524 +0.01 -0.01    -0.750 OA
DOCKED: ATOM     16  O25 DVT A 531     -24.696 -33.431 -26.086 +0.00 +0.04    -0.750 OA
DOCKED: ATOM     17  O21 DVT A 531     -23.317 -33.398 -28.265 +0.00 +0.01    -0.750 OA
DOCKED: ATOM     18  V6  DVT A 531     -22.936 -32.978 -30.046 +0.02 +0.04    +1.500 Zn
DOCKED: ATOM     19  O19 DVT A 531     -23.482 -32.552 -31.794 +0.03 -0.13    -0.750 OA
DOCKED: ATOM     20  O22 DVT A 531     -21.541 -33.760 -30.143 +0.00 +0.02    -0.750 OA
DOCKED: ATOM     21  O6  DVT A 531     -22.472 -31.238 -29.629 +0.01 -0.03    -0.750 OA
DOCKED: ATOM     22  V8  DVT A 531     -25.805 -34.074 -30.129 +0.02 +0.11    +1.500 Zn
DOCKED: ATOM     23  O20 DVT A 531     -24.231 -34.534 -30.451 +0.01 -0.02    -0.750 OA
DOCKED: ATOM     24  O23 DVT A 531     -26.774 -35.405 -30.427 +0.01 -0.01    -0.750 OA
DOCKED: ATOM     25  O16 DVT A 531     -25.071 -32.168 -29.662 +0.02 -0.11    -0.750 OA
DOCKED: ATOM     26  V5  DVT A 531     -23.929 -30.160 -29.185 +0.04 +0.17    +1.500 Zn
DOCKED: ATOM     27  O14 DVT A 531     -23.309 -28.714 -28.845 +0.02 -0.04    -0.750 OA
DOCKED: ATOM     28  O7  DVT A 531     -25.886 -29.680 -28.934 +0.03 -0.15    -0.750 OA
DOCKED: ATOM     29  V2  DVT A 531     -26.860 -31.022 -29.283 +0.04 +0.35    +1.500 Zn
DOCKED: ATOM     30  O1  DVT A 531     -28.439 -30.518 -29.005 +0.02 -0.14    -0.750 OA
DOCKED: ATOM     31  O17 DVT A 531     -26.150 -33.156 -31.801 +0.02 -0.25    -0.750 OA
DOCKED: ATOM     32  V4  DVT A 531     -24.953 -31.556 -31.784 +0.12 +0.91    +1.500 Zn
DOCKED: ATOM     33  O13 DVT A 531     -24.242 -30.053 -31.054 +0.02 -0.34    -0.750 OA
DOCKED: ATOM     34  O12 DVT A 531     -25.117 -31.028 -33.296 -0.41 -1.29    -0.750 OA
DOCKED: ATOM     35  O9  DVT A 531     -26.719 -30.893 -31.155 +0.03 -0.67    -0.750 OA
DOCKED: ATOM     36  V3  DVT A 531     -27.960 -32.328 -31.813 +0.09 +0.88    +1.500 Zn
DOCKED: ATOM     37  O3  DVT A 531     -29.456 -31.580 -31.107 +0.02 -0.29    -0.750 OA
DOCKED: ATOM     38  O10 DVT A 531     -28.093 -31.761 -33.327 -0.28 -1.15    -0.750 OA
DOCKED: ENDROOT
DOCKED: TORSDOF 0
DOCKED: TER
DOCKED: ENDMDL
________________________________________________________________________________


	BEGINNING GENETIC ALGORITHM DOCKING 12 of 50
Run: 12 Seed: 808176390 1169246660 [ Run 12 of 50 GA/GALS ]
Beginning LAMARCKIAN GENETIC ALGORITHM (LGA), with a maximum of 2500000 energy evaluations.

Final-Value: -1.860


	FINAL GENETIC ALGORITHM DOCKED STATE
	_______________________________________________


Detailed state:  trans 2.425 -11.842 -54.205 quatxyzw 0.199742 0.196645 -0.842723 0.459622 center 38.166 -0.098 117.777 ntor 0
State:	  2.425 -11.842 -54.205   0.225  0.221 -0.949 125.275  

DOCKED: MODEL       12
DOCKED: USER    Run = 12
DOCKED: USER    DPF = blind_docking.dpf
DOCKED: USER  
DOCKED: USER    Estimated Free Energy of Binding    =   -1.86 kcal/mol  [=(1)+(2)+(3)-(4)]
DOCKED: USER    Estimated Inhibition Constant, Ki   =   43.33 mM (millimolar)  [Temperature = 298.15 K]
DOCKED: USER    
DOCKED: USER    (1) Final Intermolecular Energy     =   -1.86 kcal/mol
DOCKED: USER        vdW + Hbond + desolv Energy     =   -0.42 kcal/mol
DOCKED: USER        Electrostatic Energy            =   -1.44 kcal/mol
DOCKED: USER    (2) Final Total Internal Energy     =   +0.00 kcal/mol
DOCKED: USER    (3) Torsional Free Energy           =   +0.00 kcal/mol
DOCKED: USER    (4) Unbound System's Energy  [=(2)] =   +0.00 kcal/mol
DOCKED: USER    
DOCKED: USER    
DOCKED: USER    NEWDPF move ../ligands/decavanadate.pdbqt
DOCKED: USER    NEWDPF about 38.166447 -0.097658 117.776763
DOCKED: USER    NEWDPF tran0 2.425259 -11.841622 -54.204684
DOCKED: USER    NEWDPF quaternion0 0.199742 0.196645 -0.842723 0.459622
DOCKED: USER    NEWDPF axisangle0 0.224906 0.221418 -0.948889 125.274561
DOCKED: USER    NEWDPF quat0 0.224906 0.221418 -0.948889 125.274561
DOCKED: USER  keepresnum = 1 
DOCKED: USER  
DOCKED: USER                              x       y       z     vdW  Elec       q    Type
DOCKED: USER                           _______ _______ _______ _____ _____    ______ ____
DOCKED: ROOT
DOCKED: ATOM      1  O28 DVT A 531       0.517 -15.568 -56.802 +0.02 -0.06    -0.750 OA
DOCKED: ATOM      2  V10 DVT A 531       1.173 -14.212 -56.324 +0.08 +0.21    +1.500 Zn
DOCKED: ATOM      3  O18 DVT A 531       3.000 -14.325 -56.595 +0.01 +0.00    -0.750 OA
DOCKED: ATOM      4  O15 DVT A 531       1.226 -13.130 -57.815 +0.02 -0.02    -0.750 OA
DOCKED: ATOM      5  V1  DVT A 531       1.878 -11.434 -57.550 +0.02 +0.01    +1.500 Zn
DOCKED: ATOM      6  O5  DVT A 531       1.830 -10.735 -59.016 +0.00 +0.04    -0.750 OA
DOCKED: ATOM      7  O27 DVT A 531      -0.364 -13.252 -55.798 -0.15 -0.46    -0.750 OA
DOCKED: ATOM      8  V9  DVT A 531      -0.079 -11.548 -55.176 +0.09 +0.83    +1.500 Zn
DOCKED: ATOM      9  O2  DVT A 531       2.035 -12.236 -55.392 +0.02 -0.10    -0.750 OA
DOCKED: ATOM     10  O4  DVT A 531       0.239 -10.875 -56.816 +0.02 -0.09    -0.750 OA
DOCKED: ATOM     11  O8  DVT A 531       1.019 -10.077 -54.365 +0.02 -0.15    -0.750 OA
DOCKED: ATOM     12  O26 DVT A 531      -1.572 -11.139 -54.752 -0.37 -0.68    -0.750 OA
DOCKED: ATOM     13  O24 DVT A 531       0.352 -12.339 -53.372 -0.25 -0.68    -0.750 OA
DOCKED: ATOM     14  V7  DVT A 531       0.812 -10.579 -52.473 +0.10 +0.64    +1.500 Zn
DOCKED: ATOM     15  O11 DVT A 531       1.880  -9.243 -51.964 +0.02 -0.07    -0.750 OA
DOCKED: ATOM     16  O25 DVT A 531      -0.742 -10.382 -52.124 -0.47 -0.83    -0.750 OA
DOCKED: ATOM     17  O21 DVT A 531       1.244 -11.560 -50.976 +0.00 -0.26    -0.750 OA
DOCKED: ATOM     18  V6  DVT A 531       2.979 -12.239 -50.823 +0.05 +0.12    +1.500 Zn
DOCKED: ATOM     19  O19 DVT A 531       4.551 -12.936 -51.583 +0.01 +0.01    -0.750 OA
DOCKED: ATOM     20  O22 DVT A 531       2.822 -12.866 -49.357 +0.02 -0.04    -0.750 OA
DOCKED: ATOM     21  O6  DVT A 531       3.706 -10.562 -50.542 +0.01 -0.00    -0.750 OA
DOCKED: ATOM     22  V8  DVT A 531       1.989 -13.309 -53.527 +0.09 +0.34    +1.500 Zn
DOCKED: ATOM     23  O20 DVT A 531       2.223 -13.798 -51.946 +0.02 -0.13    -0.750 OA
DOCKED: ATOM     24  O23 DVT A 531       1.324 -14.607 -54.346 +0.01 -0.19    -0.750 OA
DOCKED: ATOM     25  O16 DVT A 531       2.810 -11.456 -52.996 +0.02 -0.08    -0.750 OA
DOCKED: ATOM     26  V5  DVT A 531       3.743  -9.496 -52.073 +0.02 -0.01    +1.500 Zn
DOCKED: ATOM     27  O14 DVT A 531       4.386  -8.096 -51.608 +0.00 +0.04    -0.750 OA
DOCKED: ATOM     28  O7  DVT A 531       3.518  -9.050 -54.042 +0.01 +0.01    -0.750 OA
DOCKED: ATOM     29  V2  DVT A 531       2.887 -10.387 -54.869 +0.03 +0.05    +1.500 Zn
DOCKED: ATOM     30  O1  DVT A 531       2.713  -9.889 -56.464 +0.01 +0.01    -0.750 OA
DOCKED: ATOM     31  O17 DVT A 531       3.810 -13.553 -54.143 +0.02 -0.01    -0.750 OA
DOCKED: ATOM     32  V4  DVT A 531       4.890 -12.189 -53.159 +0.02 -0.03    +1.500 Zn
DOCKED: ATOM     33  O13 DVT A 531       5.265 -10.511 -52.575 +0.00 +0.03    -0.750 OA
DOCKED: ATOM     34  O12 DVT A 531       6.387 -12.649 -53.532 +0.00 +0.05    -0.750 OA
DOCKED: ATOM     35  O9  DVT A 531       4.493 -11.366 -54.925 +0.01 +0.02    -0.750 OA
DOCKED: ATOM     36  V3  DVT A 531       4.019 -12.971 -56.036 +0.02 -0.03    +1.500 Zn
DOCKED: ATOM     37  O3  DVT A 531       3.650 -12.021 -57.538 +0.01 +0.03    -0.750 OA
DOCKED: ATOM     38  O10 DVT A 531       5.545 -13.398 -56.383 +0.00 +0.05    -0.750 OA
DOCKED: ENDROOT
DOCKED: TORSDOF 0
DOCKED: TER
DOCKED: ENDMDL
________________________________________________________________________________


	BEGINNING GENETIC ALGORITHM DOCKING 13 of 50
Run: 13 Seed: 1724548273 1821455381 [ Run 13 of 50 GA/GALS ]
Beginning LAMARCKIAN GENETIC ALGORITHM (LGA), with a maximum of 2500000 energy evaluations.

Final-Value: -2.113


	FINAL GENETIC ALGORITHM DOCKED STATE
	_______________________________________________


Detailed state:  trans -26.578 -32.742 -29.919 quatxyzw -0.544785 0.604673 0.209363 -0.541984 center 38.166 -0.098 117.777 ntor 0
State:	-26.578 -32.742 -29.919  -0.648  0.720  0.249 -114.362  

DOCKED: MODEL       13
DOCKED: USER    Run = 13
DOCKED: USER    DPF = blind_docking.dpf
DOCKED: USER  
DOCKED: USER    Estimated Free Energy of Binding    =   -2.11 kcal/mol  [=(1)+(2)+(3)-(4)]
DOCKED: USER    Estimated Inhibition Constant, Ki   =   28.27 mM (millimolar)  [Temperature = 298.15 K]
DOCKED: USER    
DOCKED: USER    (1) Final Intermolecular Energy     =   -2.11 kcal/mol
DOCKED: USER        vdW + Hbond + desolv Energy     =   +0.21 kcal/mol
DOCKED: USER        Electrostatic Energy            =   -2.32 kcal/mol
DOCKED: USER    (2) Final Total Internal Energy     =   +0.00 kcal/mol
DOCKED: USER    (3) Torsional Free Energy           =   +0.00 kcal/mol
DOCKED: USER    (4) Unbound System's Energy  [=(2)] =   +0.00 kcal/mol
DOCKED: USER    
DOCKED: USER    
DOCKED: USER    NEWDPF move ../ligands/decavanadate.pdbqt
DOCKED: USER    NEWDPF about 38.166447 -0.097658 117.776763
DOCKED: USER    NEWDPF tran0 -26.577904 -32.741709 -29.919055
DOCKED: USER    NEWDPF quaternion0 -0.544785 0.604673 0.209363 -0.541984
DOCKED: USER    NEWDPF axisangle0 -0.648254 0.719516 0.249126 -114.362403
DOCKED: USER    NEWDPF quat0 -0.648254 0.719516 0.249126 -114.362403
DOCKED: USER  keepresnum = 1 
DOCKED: USER  
DOCKED: USER                              x       y       z     vdW  Elec       q    Type
DOCKED: USER                           _______ _______ _______ _____ _____    ______ ____
DOCKED: ROOT
DOCKED: ATOM      1  O28 DVT A 531     -31.199 -31.059 -29.623 +0.03 -0.07    -0.750 OA
DOCKED: ATOM      2  V10 DVT A 531     -29.897 -31.941 -29.781 +0.04 +0.21    +1.500 Zn
DOCKED: ATOM      3  O18 DVT A 531     -29.613 -32.844 -28.191 +0.01 -0.02    -0.750 OA
DOCKED: ATOM      4  O15 DVT A 531     -30.478 -33.587 -30.374 +0.01 -0.04    -0.750 OA
DOCKED: ATOM      5  V1  DVT A 531     -29.164 -34.820 -30.725 +0.01 +0.06    +1.500 Zn
DOCKED: ATOM      6  O5  DVT A 531     -29.960 -36.156 -31.196 +0.00 +0.02    -0.750 OA
DOCKED: ATOM      7  O27 DVT A 531     -29.439 -31.564 -31.572 -0.00 -0.37    -0.750 OA
DOCKED: ATOM      8  V9  DVT A 531     -27.951 -32.420 -32.224 +0.10 +0.99    +1.500 Zn
DOCKED: ATOM      9  O2  DVT A 531     -27.844 -33.041 -30.081 +0.02 -0.12    -0.750 OA
DOCKED: ATOM     10  O4  DVT A 531     -28.788 -34.007 -32.379 +0.02 -0.14    -0.750 OA
DOCKED: ATOM     11  O8  DVT A 531     -26.191 -33.369 -32.058 +0.02 -0.23    -0.750 OA
DOCKED: ATOM     12  O26 DVT A 531     -27.854 -31.764 -33.686 -0.13 -1.25    -0.750 OA
DOCKED: ATOM     13  O24 DVT A 531     -26.820 -30.986 -31.367 +0.03 -0.75    -0.750 OA
DOCKED: ATOM     14  V7  DVT A 531     -25.031 -31.787 -31.892 +0.12 +0.87    +1.500 Zn
DOCKED: ATOM     15  O11 DVT A 531     -23.590 -32.820 -31.690 +0.02 -0.11    -0.750 OA
DOCKED: ATOM     16  O25 DVT A 531     -25.125 -31.012 -33.293 -0.40 -1.31    -0.750 OA
DOCKED: ATOM     17  O21 DVT A 531     -24.243 -30.418 -30.944 +0.02 -0.30    -0.750 OA
DOCKED: ATOM     18  V6  DVT A 531     -23.956 -30.651 -29.112 +0.03 +0.15    +1.500 Zn
DOCKED: ATOM     19  O19 DVT A 531     -24.448 -31.360 -27.441 +0.01 -0.01    -0.750 OA
DOCKED: ATOM     20  O22 DVT A 531     -23.184 -29.271 -28.852 +0.02 -0.04    -0.750 OA
DOCKED: ATOM     21  O6  DVT A 531     -22.617 -31.895 -29.389 +0.01 -0.02    -0.750 OA
DOCKED: ATOM     22  V8  DVT A 531     -26.961 -31.174 -29.473 +0.05 +0.39    +1.500 Zn
DOCKED: ATOM     23  O20 DVT A 531     -25.905 -29.988 -28.953 +0.02 -0.15    -0.750 OA
DOCKED: ATOM     24  O23 DVT A 531     -28.504 -30.535 -29.367 +0.03 -0.18    -0.750 OA
DOCKED: ATOM     25  O16 DVT A 531     -25.301 -32.421 -29.757 +0.02 -0.11    -0.750 OA
DOCKED: ATOM     26  V5  DVT A 531     -23.242 -33.548 -29.989 +0.01 +0.03    +1.500 Zn
DOCKED: ATOM     27  O14 DVT A 531     -21.931 -34.461 -30.181 +0.00 +0.03    -0.750 OA
DOCKED: ATOM     28  O7  DVT A 531     -24.624 -34.948 -30.491 +0.01 -0.01    -0.750 OA
DOCKED: ATOM     29  V2  DVT A 531     -26.183 -34.304 -30.336 +0.02 +0.11    +1.500 Zn
DOCKED: ATOM     30  O1  DVT A 531     -27.227 -35.532 -30.811 +0.01 -0.02    -0.750 OA
DOCKED: ATOM     31  O17 DVT A 531     -27.021 -32.201 -27.831 +0.01 -0.03    -0.750 OA
DOCKED: ATOM     32  V4  DVT A 531     -25.187 -32.966 -27.616 +0.01 -0.00    +1.500 Zn
DOCKED: ATOM     33  O13 DVT A 531     -23.716 -33.868 -28.179 +0.00 +0.02    -0.750 OA
DOCKED: ATOM     34  O12 DVT A 531     -25.270 -33.559 -26.122 +0.00 +0.03    -0.750 OA
DOCKED: ATOM     35  O9  DVT A 531     -26.260 -34.412 -28.459 +0.01 +0.00    -0.750 OA
DOCKED: ATOM     36  V3  DVT A 531     -28.138 -33.836 -28.039 +0.01 +0.00    +1.500 Zn
DOCKED: ATOM     37  O3  DVT A 531     -28.927 -35.215 -28.916 +0.00 +0.01    -0.750 OA
DOCKED: ATOM     38  O10 DVT A 531     -28.174 -34.447 -26.536 +0.00 +0.03    -0.750 OA
DOCKED: ENDROOT
DOCKED: TORSDOF 0
DOCKED: TER
DOCKED: ENDMDL
________________________________________________________________________________


	BEGINNING GENETIC ALGORITHM DOCKING 14 of 50
Run: 14 Seed: 1367681881 787751189 [ Run 14 of 50 GA/GALS ]
Beginning LAMARCKIAN GENETIC ALGORITHM (LGA), with a maximum of 2500000 energy evaluations.

Final-Value: -1.843


	FINAL GENETIC ALGORITHM DOCKED STATE
	_______________________________________________


Detailed state:  trans 1.960 -10.954 -53.918 quatxyzw 0.012908 -0.294784 0.782337 -0.548530 center 38.166 -0.098 117.777 ntor 0
State:	  1.960 -10.954 -53.918   0.015 -0.353  0.936 -113.468  

DOCKED: MODEL       14
DOCKED: USER    Run = 14
DOCKED: USER    DPF = blind_docking.dpf
DOCKED: USER  
DOCKED: USER    Estimated Free Energy of Binding    =   -1.84 kcal/mol  [=(1)+(2)+(3)-(4)]
DOCKED: USER    Estimated Inhibition Constant, Ki   =   44.56 mM (millimolar)  [Temperature = 298.15 K]
DOCKED: USER    
DOCKED: USER    (1) Final Intermolecular Energy     =   -1.84 kcal/mol
DOCKED: USER        vdW + Hbond + desolv Energy     =   -0.35 kcal/mol
DOCKED: USER        Electrostatic Energy            =   -1.50 kcal/mol
DOCKED: USER    (2) Final Total Internal Energy     =   +0.00 kcal/mol
DOCKED: USER    (3) Torsional Free Energy           =   +0.00 kcal/mol
DOCKED: USER    (4) Unbound System's Energy  [=(2)] =   +0.00 kcal/mol
DOCKED: USER    
DOCKED: USER    
DOCKED: USER    NEWDPF move ../ligands/decavanadate.pdbqt
DOCKED: USER    NEWDPF about 38.166447 -0.097658 117.776763
DOCKED: USER    NEWDPF tran0 1.960060 -10.953578 -53.918330
DOCKED: USER    NEWDPF quaternion0 0.012908 -0.294784 0.782337 -0.548530
DOCKED: USER    NEWDPF axisangle0 0.015437 -0.352558 0.935663 -113.467618
DOCKED: USER    NEWDPF quat0 0.015437 -0.352558 0.935663 -113.467618
DOCKED: USER  keepresnum = 1 
DOCKED: USER  
DOCKED: USER                              x       y       z     vdW  Elec       q    Type
DOCKED: USER                           _______ _______ _______ _____ _____    ______ ____
DOCKED: ROOT
DOCKED: ATOM      1  O28 DVT A 531      -1.038 -13.214 -57.108 +0.01 -0.20    -0.750 OA
DOCKED: ATOM      2  V10 DVT A 531      -0.102 -12.195 -56.344 +0.09 +0.48    +1.500 Zn
DOCKED: ATOM      3  O18 DVT A 531       1.564 -12.223 -57.149 +0.02 -0.04    -0.750 OA
DOCKED: ATOM      4  O15 DVT A 531      -0.278 -10.590 -57.233 +0.02 -0.06    -0.750 OA
DOCKED: ATOM      5  V1  DVT A 531       0.648  -9.174 -56.520 +0.03 +0.03    +1.500 Zn
DOCKED: ATOM      6  O5  DVT A 531       0.329  -7.926 -57.510 +0.01 +0.04    -0.750 OA
DOCKED: ATOM      7  O27 DVT A 531      -1.308 -11.510 -55.065 -0.43 -0.72    -0.750 OA
DOCKED: ATOM      8  V9  DVT A 531      -0.643 -10.228 -53.931 +0.12 +0.85    +1.500 Zn
DOCKED: ATOM      9  O2  DVT A 531       1.232 -10.808 -54.999 +0.01 -0.15    -0.750 OA
DOCKED: ATOM     10  O4  DVT A 531      -0.659  -8.939 -55.189 +0.02 -0.09    -0.750 OA
DOCKED: ATOM     11  O8  DVT A 531       0.817  -9.254 -52.958 +0.02 -0.14    -0.750 OA
DOCKED: ATOM     12  O26 DVT A 531      -1.909 -10.002 -52.971 -0.26 -0.60    -0.750 OA
DOCKED: ATOM     13  O24 DVT A 531       0.116 -11.709 -52.792 -0.31 -0.80    -0.750 OA
DOCKED: ATOM     14  V7  DVT A 531       1.027 -10.495 -51.446 +0.10 +0.50    +1.500 Zn
DOCKED: ATOM     15  O11 DVT A 531       2.363  -9.517 -50.781 +0.02 -0.04    -0.750 OA
DOCKED: ATOM     16  O25 DVT A 531      -0.345 -10.429 -50.617 -0.09 -0.47    -0.750 OA
DOCKED: ATOM     17  O21 DVT A 531       1.683 -12.022 -50.650 +0.02 -0.18    -0.750 OA
DOCKED: ATOM     18  V6  DVT A 531       3.289 -12.738 -51.283 +0.05 +0.09    +1.500 Zn
DOCKED: ATOM     19  O19 DVT A 531       4.506 -13.088 -52.673 +0.01 +0.00    -0.750 OA
DOCKED: ATOM     20  O22 DVT A 531       3.422 -13.918 -50.206 +0.02 -0.02    -0.750 OA
DOCKED: ATOM     21  O6  DVT A 531       4.288 -11.348 -50.584 +0.01 +0.01    -0.750 OA
DOCKED: ATOM     22  V8  DVT A 531       1.510 -12.560 -53.780 +0.09 +0.51    +1.500 Zn
DOCKED: ATOM     23  O20 DVT A 531       2.066 -13.669 -52.661 +0.02 -0.16    -0.750 OA
DOCKED: ATOM     24  O23 DVT A 531       0.487 -13.383 -54.817 -0.13 -0.44    -0.750 OA
DOCKED: ATOM     25  O16 DVT A 531       2.687 -11.116 -52.821 +0.02 -0.08    -0.750 OA
DOCKED: ATOM     26  V5  DVT A 531       4.085  -9.741 -51.510 +0.02 -0.03    +1.500 Zn
DOCKED: ATOM     27  O14 DVT A 531       5.011  -8.677 -50.737 +0.00 +0.05    -0.750 OA
DOCKED: ATOM     28  O7  DVT A 531       3.435  -8.509 -52.988 +0.01 +0.02    -0.750 OA
DOCKED: ATOM     29  V2  DVT A 531       2.436  -9.365 -54.056 +0.03 +0.05    +1.500 Zn
DOCKED: ATOM     30  O1  DVT A 531       1.935  -8.242 -55.202 +0.01 +0.01    -0.750 OA
DOCKED: ATOM     31  O17 DVT A 531       3.064 -12.563 -54.938 +0.02 -0.04    -0.750 OA
DOCKED: ATOM     32  V4  DVT A 531       4.536 -11.758 -53.851 +0.02 -0.02    +1.500 Zn
DOCKED: ATOM     33  O13 DVT A 531       5.275 -10.486 -52.787 +0.00 +0.03    -0.750 OA
DOCKED: ATOM     34  O12 DVT A 531       5.812 -12.052 -54.788 +0.00 +0.04    -0.750 OA
DOCKED: ATOM     35  O9  DVT A 531       3.825 -10.265 -54.953 +0.01 +0.01    -0.750 OA
DOCKED: ATOM     36  V3  DVT A 531       2.868 -11.249 -56.420 +0.02 +0.01    +1.500 Zn
DOCKED: ATOM     37  O3  DVT A 531       2.267  -9.750 -57.250 +0.01 +0.02    -0.750 OA
DOCKED: ATOM     38  O10 DVT A 531       4.182 -11.524 -57.329 +0.00 +0.04    -0.750 OA
DOCKED: ENDROOT
DOCKED: TORSDOF 0
DOCKED: TER
DOCKED: ENDMDL
________________________________________________________________________________


	BEGINNING GENETIC ALGORITHM DOCKING 15 of 50
Run: 15 Seed: 541412890 1943732266 [ Run 15 of 50 GA/GALS ]
Beginning LAMARCKIAN GENETIC ALGORITHM (LGA), with a maximum of 2500000 energy evaluations.

Final-Value: -2.098


	FINAL GENETIC ALGORITHM DOCKED STATE
	_______________________________________________


Detailed state:  trans -26.215 -32.284 -29.599 quatxyzw 0.563836 -0.646230 -0.195991 0.475461 center 38.166 -0.098 117.777 ntor 0
State:	-26.215 -32.284 -29.599   0.641 -0.735 -0.223 123.221  

DOCKED: MODEL       15
DOCKED: USER    Run = 15
DOCKED: USER    DPF = blind_docking.dpf
DOCKED: USER  
DOCKED: USER    Estimated Free Energy of Binding    =   -2.10 kcal/mol  [=(1)+(2)+(3)-(4)]
DOCKED: USER    Estimated Inhibition Constant, Ki   =   28.99 mM (millimolar)  [Temperature = 298.15 K]
DOCKED: USER    
DOCKED: USER    (1) Final Intermolecular Energy     =   -2.10 kcal/mol
DOCKED: USER        vdW + Hbond + desolv Energy     =   +0.18 kcal/mol
DOCKED: USER        Electrostatic Energy            =   -2.28 kcal/mol
DOCKED: USER    (2) Final Total Internal Energy     =   +0.00 kcal/mol
DOCKED: USER    (3) Torsional Free Energy           =   +0.00 kcal/mol
DOCKED: USER    (4) Unbound System's Energy  [=(2)] =   +0.00 kcal/mol
DOCKED: USER    
DOCKED: USER    
DOCKED: USER    NEWDPF move ../ligands/decavanadate.pdbqt
DOCKED: USER    NEWDPF about 38.166447 -0.097658 117.776763
DOCKED: USER    NEWDPF tran0 -26.215363 -32.283544 -29.599078
DOCKED: USER    NEWDPF quaternion0 0.563836 -0.646230 -0.195991 0.475461
DOCKED: USER    NEWDPF axisangle0 0.640915 -0.734572 -0.222783 123.221268
DOCKED: USER    NEWDPF quat0 0.640915 -0.734572 -0.222783 123.221268
DOCKED: USER  keepresnum = 1 
DOCKED: USER  
DOCKED: USER                              x       y       z     vdW  Elec       q    Type
DOCKED: USER                           _______ _______ _______ _____ _____    ______ ____
DOCKED: ROOT
DOCKED: ATOM      1  O28 DVT A 531     -30.777 -30.506 -29.049 +0.03 -0.07    -0.750 OA
DOCKED: ATOM      2  V10 DVT A 531     -29.501 -31.421 -29.226 +0.04 +0.20    +1.500 Zn
DOCKED: ATOM      3  O18 DVT A 531     -29.056 -32.121 -27.571 +0.01 -0.01    -0.750 OA
DOCKED: ATOM      4  O15 DVT A 531     -30.143 -33.119 -29.543 +0.01 -0.04    -0.750 OA
DOCKED: ATOM      5  V1  DVT A 531     -28.875 -34.407 -29.867 +0.01 +0.06    +1.500 Zn
DOCKED: ATOM      6  O5  DVT A 531     -29.719 -35.779 -30.082 +0.00 +0.01    -0.750 OA
DOCKED: ATOM      7  O27 DVT A 531     -29.229 -31.279 -31.087 +0.02 -0.36    -0.750 OA
DOCKED: ATOM      8  V9  DVT A 531     -27.819 -32.233 -31.774 +0.09 +0.94    +1.500 Zn
DOCKED: ATOM      9  O2  DVT A 531     -27.492 -32.581 -29.591 +0.02 -0.12    -0.750 OA
DOCKED: ATOM     10  O4  DVT A 531     -28.670 -33.814 -31.640 +0.02 -0.13    -0.750 OA
DOCKED: ATOM     11  O8  DVT A 531     -26.052 -33.180 -31.669 +0.02 -0.23    -0.750 OA
DOCKED: ATOM     12  O26 DVT A 531     -27.871 -31.768 -33.309 -0.18 -1.19    -0.750 OA
DOCKED: ATOM     13  O24 DVT A 531     -26.602 -30.721 -31.226 +0.03 -0.74    -0.750 OA
DOCKED: ATOM     14  V7  DVT A 531     -24.878 -31.608 -31.824 +0.12 +0.87    +1.500 Zn
DOCKED: ATOM     15  O11 DVT A 531     -23.426 -32.630 -31.641 +0.03 -0.11    -0.750 OA
DOCKED: ATOM     16  O25 DVT A 531     -25.114 -31.015 -33.296 -0.41 -1.30    -0.750 OA
DOCKED: ATOM     17  O21 DVT A 531     -23.994 -30.143 -31.143 +0.02 -0.30    -0.750 OA
DOCKED: ATOM     18  V6  DVT A 531     -23.519 -30.148 -29.335 +0.04 +0.15    +1.500 Zn
DOCKED: ATOM     19  O19 DVT A 531     -23.838 -30.634 -27.547 +0.01 -0.00    -0.750 OA
DOCKED: ATOM     20  O22 DVT A 531     -22.721 -28.759 -29.332 +0.02 -0.04    -0.750 OA
DOCKED: ATOM     21  O6  DVT A 531     -22.219 -31.438 -29.588 +0.01 -0.01    -0.750 OA
DOCKED: ATOM     22  V8  DVT A 531     -26.547 -30.666 -29.319 +0.05 +0.39    +1.500 Zn
DOCKED: ATOM     23  O20 DVT A 531     -25.440 -29.441 -29.064 +0.03 -0.15    -0.750 OA
DOCKED: ATOM     24  O23 DVT A 531     -28.069 -29.996 -29.137 +0.03 -0.18    -0.750 OA
DOCKED: ATOM     25  O16 DVT A 531     -24.928 -31.965 -29.610 +0.02 -0.11    -0.750 OA
DOCKED: ATOM     26  V5  DVT A 531     -22.906 -33.143 -29.906 +0.02 +0.03    +1.500 Zn
DOCKED: ATOM     27  O14 DVT A 531     -21.625 -34.093 -30.114 +0.00 +0.03    -0.750 OA
DOCKED: ATOM     28  O7  DVT A 531     -24.336 -34.574 -30.084 +0.01 -0.01    -0.750 OA
DOCKED: ATOM     29  V2  DVT A 531     -25.869 -33.892 -29.853 +0.02 +0.11    +1.500 Zn
DOCKED: ATOM     30  O1  DVT A 531     -26.960 -35.153 -30.059 +0.01 -0.02    -0.750 OA
DOCKED: ATOM     31  O17 DVT A 531     -26.440 -31.478 -27.562 +0.01 -0.03    -0.750 OA
DOCKED: ATOM     32  V4  DVT A 531     -24.595 -32.237 -27.440 +0.01 -0.00    +1.500 Zn
DOCKED: ATOM     33  O13 DVT A 531     -23.192 -33.226 -28.032 +0.00 +0.02    -0.750 OA
DOCKED: ATOM     34  O12 DVT A 531     -24.524 -32.636 -25.882 +0.00 +0.03    -0.750 OA
DOCKED: ATOM     35  O9  DVT A 531     -25.753 -33.761 -27.979 +0.01 +0.00    -0.750 OA
DOCKED: ATOM     36  V3  DVT A 531     -27.576 -33.108 -27.446 +0.01 +0.00    +1.500 Zn
DOCKED: ATOM     37  O3  DVT A 531     -28.454 -34.575 -28.056 +0.00 +0.01    -0.750 OA
DOCKED: ATOM     38  O10 DVT A 531     -27.458 -33.525 -25.882 +0.00 +0.03    -0.750 OA
DOCKED: ENDROOT
DOCKED: TORSDOF 0
DOCKED: TER
DOCKED: ENDMDL
________________________________________________________________________________


	BEGINNING GENETIC ALGORITHM DOCKING 16 of 50
Run: 16 Seed: 902573475 972170047 [ Run 16 of 50 GA/GALS ]
Beginning LAMARCKIAN GENETIC ALGORITHM (LGA), with a maximum of 2500000 energy evaluations.

Final-Value: -2.092


	FINAL GENETIC ALGORITHM DOCKED STATE
	_______________________________________________


Detailed state:  trans -26.628 -32.653 -29.882 quatxyzw 0.547175 -0.611778 -0.192232 0.537935 center 38.166 -0.098 117.777 ntor 0
State:	-26.628 -32.653 -29.882   0.649 -0.726 -0.228 114.914  

DOCKED: MODEL       16
DOCKED: USER    Run = 16
DOCKED: USER    DPF = blind_docking.dpf
DOCKED: USER  
DOCKED: USER    Estimated Free Energy of Binding    =   -2.09 kcal/mol  [=(1)+(2)+(3)-(4)]
DOCKED: USER    Estimated Inhibition Constant, Ki   =   29.27 mM (millimolar)  [Temperature = 298.15 K]
DOCKED: USER    
DOCKED: USER    (1) Final Intermolecular Energy     =   -2.09 kcal/mol
DOCKED: USER        vdW + Hbond + desolv Energy     =   +0.21 kcal/mol
DOCKED: USER        Electrostatic Energy            =   -2.30 kcal/mol
DOCKED: USER    (2) Final Total Internal Energy     =   +0.00 kcal/mol
DOCKED: USER    (3) Torsional Free Energy           =   +0.00 kcal/mol
DOCKED: USER    (4) Unbound System's Energy  [=(2)] =   +0.00 kcal/mol
DOCKED: USER    
DOCKED: USER    
DOCKED: USER    NEWDPF move ../ligands/decavanadate.pdbqt
DOCKED: USER    NEWDPF about 38.166447 -0.097658 117.776763
DOCKED: USER    NEWDPF tran0 -26.627652 -32.652950 -29.881975
DOCKED: USER    NEWDPF quaternion0 0.547175 -0.611778 -0.192232 0.537935
DOCKED: USER    NEWDPF axisangle0 0.649091 -0.725727 -0.228037 114.913700
DOCKED: USER    NEWDPF quat0 0.649091 -0.725727 -0.228037 114.913700
DOCKED: USER  keepresnum = 1 
DOCKED: USER  
DOCKED: USER                              x       y       z     vdW  Elec       q    Type
DOCKED: USER                           _______ _______ _______ _____ _____    ______ ____
DOCKED: ROOT
DOCKED: ATOM      1  O28 DVT A 531     -31.213 -30.862 -29.672 +0.03 -0.07    -0.750 OA
DOCKED: ATOM      2  V10 DVT A 531     -29.929 -31.777 -29.793 +0.04 +0.22    +1.500 Zn
DOCKED: ATOM      3  O18 DVT A 531     -29.676 -32.636 -28.174 +0.01 -0.02    -0.750 OA
DOCKED: ATOM      4  O15 DVT A 531     -30.542 -33.427 -30.340 +0.01 -0.05    -0.750 OA
DOCKED: ATOM      5  V1  DVT A 531     -29.253 -34.699 -30.643 +0.02 +0.06    +1.500 Zn
DOCKED: ATOM      6  O5  DVT A 531     -30.075 -36.031 -31.079 +0.00 +0.02    -0.750 OA
DOCKED: ATOM      7  O27 DVT A 531     -29.451 -31.465 -31.591 -0.01 -0.39    -0.750 OA
DOCKED: ATOM      8  V9  DVT A 531     -27.978 -32.373 -32.205 +0.10 +1.01    +1.500 Zn
DOCKED: ATOM      9  O2  DVT A 531     -27.899 -32.929 -30.044 +0.02 -0.13    -0.750 OA
DOCKED: ATOM     10  O4  DVT A 531     -28.848 -33.945 -32.318 +0.02 -0.14    -0.750 OA
DOCKED: ATOM     11  O8  DVT A 531     -26.240 -33.354 -31.998 +0.02 -0.23    -0.750 OA
DOCKED: ATOM     12  O26 DVT A 531     -27.857 -31.764 -33.686 -0.13 -1.25    -0.750 OA
DOCKED: ATOM     13  O24 DVT A 531     -26.822 -30.938 -31.385 +0.03 -0.77    -0.750 OA
DOCKED: ATOM     14  V7  DVT A 531     -25.047 -31.793 -31.871 +0.12 +0.87    +1.500 Zn
DOCKED: ATOM     15  O11 DVT A 531     -23.630 -32.850 -31.628 +0.02 -0.11    -0.750 OA
DOCKED: ATOM     16  O25 DVT A 531     -25.115 -31.060 -33.297 -0.41 -1.26    -0.750 OA
DOCKED: ATOM     17  O21 DVT A 531     -24.236 -30.413 -30.960 +0.02 -0.30    -0.750 OA
DOCKED: ATOM     18  V6  DVT A 531     -23.966 -30.596 -29.120 +0.03 +0.15    +1.500 Zn
DOCKED: ATOM     19  O19 DVT A 531     -24.485 -31.242 -27.432 +0.01 -0.01    -0.750 OA
DOCKED: ATOM     20  O22 DVT A 531     -23.166 -29.225 -28.896 +0.02 -0.04    -0.750 OA
DOCKED: ATOM     21  O6  DVT A 531     -22.653 -31.876 -29.349 +0.01 -0.02    -0.750 OA
DOCKED: ATOM     22  V8  DVT A 531     -26.979 -31.064 -29.487 +0.05 +0.40    +1.500 Zn
DOCKED: ATOM     23  O20 DVT A 531     -25.901 -29.886 -28.996 +0.03 -0.15    -0.750 OA
DOCKED: ATOM     24  O23 DVT A 531     -28.508 -30.390 -29.412 +0.03 -0.19    -0.750 OA
DOCKED: ATOM     25  O16 DVT A 531     -25.345 -32.355 -29.720 +0.02 -0.11    -0.750 OA
DOCKED: ATOM     26  V5  DVT A 531     -23.310 -33.532 -29.902 +0.01 +0.03    +1.500 Zn
DOCKED: ATOM     27  O14 DVT A 531     -22.018 -34.479 -30.057 +0.00 +0.03    -0.750 OA
DOCKED: ATOM     28  O7  DVT A 531     -24.718 -34.918 -30.372 +0.01 -0.01    -0.750 OA
DOCKED: ATOM     29  V2  DVT A 531     -26.264 -34.235 -30.248 +0.02 +0.11    +1.500 Zn
DOCKED: ATOM     30  O1  DVT A 531     -27.332 -35.454 -30.693 +0.01 -0.02    -0.750 OA
DOCKED: ATOM     31  O17 DVT A 531     -27.073 -32.039 -27.815 +0.01 -0.03    -0.750 OA
DOCKED: ATOM     32  V4  DVT A 531     -25.258 -32.836 -27.563 +0.01 -0.00    +1.500 Zn
DOCKED: ATOM     33  O13 DVT A 531     -23.803 -33.787 -28.087 +0.00 +0.02    -0.750 OA
DOCKED: ATOM     34  O12 DVT A 531     -25.363 -33.381 -26.052 +0.00 +0.03    -0.750 OA
DOCKED: ATOM     35  O9  DVT A 531     -26.356 -34.284 -28.369 +0.01 -0.00    -0.750 OA
DOCKED: ATOM     36  V3  DVT A 531     -28.224 -33.655 -27.980 +0.01 +0.01    +1.500 Zn
DOCKED: ATOM     37  O3  DVT A 531     -29.037 -35.043 -28.821 +0.00 +0.01    -0.750 OA
DOCKED: ATOM     38  O10 DVT A 531     -28.283 -34.219 -26.460 +0.00 +0.03    -0.750 OA
DOCKED: ENDROOT
DOCKED: TORSDOF 0
DOCKED: TER
DOCKED: ENDMDL
________________________________________________________________________________


	BEGINNING GENETIC ALGORITHM DOCKING 17 of 50
Run: 17 Seed: 1516410637 1608331056 [ Run 17 of 50 GA/GALS ]
Beginning LAMARCKIAN GENETIC ALGORITHM (LGA), with a maximum of 2500000 energy evaluations.

Final-Value: -2.075


	FINAL GENETIC ALGORITHM DOCKED STATE
	_______________________________________________


Detailed state:  trans -25.928 -32.991 -30.021 quatxyzw -0.597996 0.125289 -0.724113 0.319943 center 38.166 -0.098 117.777 ntor 0
State:	-25.928 -32.991 -30.021  -0.631  0.132 -0.764 142.681  

DOCKED: MODEL       17
DOCKED: USER    Run = 17
DOCKED: USER    DPF = blind_docking.dpf
DOCKED: USER  
DOCKED: USER    Estimated Free Energy of Binding    =   -2.08 kcal/mol  [=(1)+(2)+(3)-(4)]
DOCKED: USER    Estimated Inhibition Constant, Ki   =   30.12 mM (millimolar)  [Temperature = 298.15 K]
DOCKED: USER    
DOCKED: USER    (1) Final Intermolecular Energy     =   -2.08 kcal/mol
DOCKED: USER        vdW + Hbond + desolv Energy     =   +0.06 kcal/mol
DOCKED: USER        Electrostatic Energy            =   -2.13 kcal/mol
DOCKED: USER    (2) Final Total Internal Energy     =   +0.00 kcal/mol
DOCKED: USER    (3) Torsional Free Energy           =   +0.00 kcal/mol
DOCKED: USER    (4) Unbound System's Energy  [=(2)] =   +0.00 kcal/mol
DOCKED: USER    
DOCKED: USER    
DOCKED: USER    NEWDPF move ../ligands/decavanadate.pdbqt
DOCKED: USER    NEWDPF about 38.166447 -0.097658 117.776763
DOCKED: USER    NEWDPF tran0 -25.928016 -32.990667 -30.020890
DOCKED: USER    NEWDPF quaternion0 -0.597996 0.125289 -0.724113 0.319943
DOCKED: USER    NEWDPF axisangle0 -0.631173 0.132239 -0.764286 142.681009
DOCKED: USER    NEWDPF quat0 -0.631173 0.132239 -0.764286 142.681009
DOCKED: USER  keepresnum = 1 
DOCKED: USER  
DOCKED: USER                              x       y       z     vdW  Elec       q    Type
DOCKED: USER                           _______ _______ _______ _____ _____    ______ ____
DOCKED: ROOT
DOCKED: ATOM      1  O28 DVT A 531     -29.071 -36.656 -31.002 +0.00 +0.02    -0.750 OA
DOCKED: ATOM      2  V10 DVT A 531     -28.392 -35.286 -30.598 +0.01 +0.03    +1.500 Zn
DOCKED: ATOM      3  O18 DVT A 531     -28.565 -34.114 -32.020 +0.02 -0.12    -0.750 OA
DOCKED: ATOM      4  O15 DVT A 531     -29.734 -34.263 -29.857 +0.01 -0.02    -0.750 OA
DOCKED: ATOM      5  V1  DVT A 531     -29.225 -32.619 -29.217 +0.02 +0.13    +1.500 Zn
DOCKED: ATOM      6  O5  DVT A 531     -30.595 -31.947 -28.658 +0.01 -0.03    -0.750 OA
DOCKED: ATOM      7  O27 DVT A 531     -27.847 -35.677 -28.835 +0.00 +0.02    -0.750 OA
DOCKED: ATOM      8  V9  DVT A 531     -27.005 -34.320 -27.929 +0.00 -0.02    +1.500 Zn
DOCKED: ATOM      9  O2  DVT A 531     -27.176 -33.385 -29.951 +0.02 -0.10    -0.750 OA
DOCKED: ATOM     10  O4  DVT A 531     -28.528 -33.400 -27.654 +0.01 +0.00    -0.750 OA
DOCKED: ATOM     11  O8  DVT A 531     -25.956 -32.615 -27.790 +0.01 -0.02    -0.750 OA
DOCKED: ATOM     12  O26 DVT A 531     -26.624 -35.072 -26.563 +0.00 +0.04    -0.750 OA
DOCKED: ATOM     13  O24 DVT A 531     -25.288 -34.848 -28.847 +0.01 +0.01    -0.750 OA
DOCKED: ATOM     14  V7  DVT A 531     -24.155 -33.369 -28.044 +0.01 -0.02    +1.500 Zn
DOCKED: ATOM     15  O11 DVT A 531     -23.424 -31.743 -27.961 +0.01 +0.00    -0.750 OA
DOCKED: ATOM     16  O25 DVT A 531     -23.879 -34.307 -26.772 +0.00 +0.04    -0.750 OA
DOCKED: ATOM     17  O21 DVT A 531     -22.766 -33.996 -29.077 +0.00 +0.02    -0.750 OA
DOCKED: ATOM     18  V6  DVT A 531     -22.593 -33.355 -30.824 +0.02 +0.03    +1.500 Zn
DOCKED: ATOM     19  O19 DVT A 531     -23.337 -32.717 -32.429 +0.03 -0.12    -0.750 OA
DOCKED: ATOM     20  O22 DVT A 531     -21.227 -34.112 -31.183 +0.00 +0.03    -0.750 OA
DOCKED: ATOM     21  O6  DVT A 531     -22.067 -31.678 -30.252 +0.01 -0.02    -0.750 OA
DOCKED: ATOM     22  V8  DVT A 531     -25.462 -34.446 -30.704 +0.03 +0.10    +1.500 Zn
DOCKED: ATOM     23  O20 DVT A 531     -23.942 -34.855 -31.265 +0.01 -0.01    -0.750 OA
DOCKED: ATOM     24  O23 DVT A 531     -26.472 -35.734 -31.049 +0.01 -0.01    -0.750 OA
DOCKED: ATOM     25  O16 DVT A 531     -24.660 -32.609 -30.093 +0.02 -0.10    -0.750 OA
DOCKED: ATOM     26  V5  DVT A 531     -23.450 -30.671 -29.509 +0.03 +0.15    +1.500 Zn
DOCKED: ATOM     27  O14 DVT A 531     -22.780 -29.276 -29.066 +0.02 -0.03    -0.750 OA
DOCKED: ATOM     28  O7  DVT A 531     -25.360 -30.236 -28.970 +0.02 -0.13    -0.750 OA
DOCKED: ATOM     29  V2  DVT A 531     -26.380 -31.529 -29.366 +0.04 +0.31    +1.500 Zn
DOCKED: ATOM     30  O1  DVT A 531     -27.910 -31.071 -28.842 +0.02 -0.12    -0.750 OA
DOCKED: ATOM     31  O17 DVT A 531     -25.993 -33.329 -32.196 +0.02 -0.24    -0.750 OA
DOCKED: ATOM     32  V4  DVT A 531     -24.787 -31.737 -32.122 +0.14 +0.89    +1.500 Zn
DOCKED: ATOM     33  O13 DVT A 531     -23.981 -30.333 -31.299 +0.02 -0.32    -0.750 OA
DOCKED: ATOM     34  O12 DVT A 531     -25.122 -31.026 -33.526 -0.36 -1.33    -0.750 OA
DOCKED: ATOM     35  O9  DVT A 531     -26.460 -31.167 -31.211 +0.02 -0.60    -0.750 OA
DOCKED: ATOM     36  V3  DVT A 531     -27.784 -32.515 -31.891 +0.09 +0.82    +1.500 Zn
DOCKED: ATOM     37  O3  DVT A 531     -29.178 -31.868 -30.925 +0.02 -0.26    -0.750 OA
DOCKED: ATOM     38  O10 DVT A 531     -28.088 -31.764 -33.296 -0.29 -1.15    -0.750 OA
DOCKED: ENDROOT
DOCKED: TORSDOF 0
DOCKED: TER
DOCKED: ENDMDL
________________________________________________________________________________


	BEGINNING GENETIC ALGORITHM DOCKING 18 of 50
Run: 18 Seed: 2037717107 1796799030 [ Run 18 of 50 GA/GALS ]
Beginning LAMARCKIAN GENETIC ALGORITHM (LGA), with a maximum of 2500000 energy evaluations.

Final-Value: -2.078


	FINAL GENETIC ALGORITHM DOCKED STATE
	_______________________________________________


Detailed state:  trans -26.035 -33.289 -30.057 quatxyzw -0.597418 0.161700 -0.730937 0.287534 center 38.166 -0.098 117.777 ntor 0
State:	-26.035 -33.289 -30.057  -0.624  0.169 -0.763 146.579  

DOCKED: MODEL       18
DOCKED: USER    Run = 18
DOCKED: USER    DPF = blind_docking.dpf
DOCKED: USER  
DOCKED: USER    Estimated Free Energy of Binding    =   -2.08 kcal/mol  [=(1)+(2)+(3)-(4)]
DOCKED: USER    Estimated Inhibition Constant, Ki   =   29.99 mM (millimolar)  [Temperature = 298.15 K]
DOCKED: USER    
DOCKED: USER    (1) Final Intermolecular Energy     =   -2.08 kcal/mol
DOCKED: USER        vdW + Hbond + desolv Energy     =   -0.03 kcal/mol
DOCKED: USER        Electrostatic Energy            =   -2.05 kcal/mol
DOCKED: USER    (2) Final Total Internal Energy     =   +0.00 kcal/mol
DOCKED: USER    (3) Torsional Free Energy           =   +0.00 kcal/mol
DOCKED: USER    (4) Unbound System's Energy  [=(2)] =   +0.00 kcal/mol
DOCKED: USER    
DOCKED: USER    
DOCKED: USER    NEWDPF move ../ligands/decavanadate.pdbqt
DOCKED: USER    NEWDPF about 38.166447 -0.097658 117.776763
DOCKED: USER    NEWDPF tran0 -26.035061 -33.288573 -30.056569
DOCKED: USER    NEWDPF quaternion0 -0.597418 0.161700 -0.730937 0.287534
DOCKED: USER    NEWDPF axisangle0 -0.623759 0.168829 -0.763165 146.579304
DOCKED: USER    NEWDPF quat0 -0.623759 0.168829 -0.763165 146.579304
DOCKED: USER  keepresnum = 1 
DOCKED: USER  
DOCKED: USER                              x       y       z     vdW  Elec       q    Type
DOCKED: USER                           _______ _______ _______ _____ _____    ______ ____
DOCKED: ROOT
DOCKED: ATOM      1  O28 DVT A 531     -29.101 -36.870 -31.487 +0.00 +0.02    -0.750 OA
DOCKED: ATOM      2  V10 DVT A 531     -28.453 -35.538 -30.936 +0.01 +0.03    +1.500 Zn
DOCKED: ATOM      3  O18 DVT A 531     -28.579 -34.244 -32.253 +0.02 -0.12    -0.750 OA
DOCKED: ATOM      4  O15 DVT A 531     -29.832 -34.593 -30.162 +0.01 -0.02    -0.750 OA
DOCKED: ATOM      5  V1  DVT A 531     -29.365 -33.010 -29.357 +0.02 +0.11    +1.500 Zn
DOCKED: ATOM      6  O5  DVT A 531     -30.762 -32.398 -28.797 +0.01 -0.03    -0.750 OA
DOCKED: ATOM      7  O27 DVT A 531     -27.974 -36.082 -29.194 +0.00 +0.02    -0.750 OA
DOCKED: ATOM      8  V9  DVT A 531     -27.183 -34.806 -28.137 +0.00 -0.03    +1.500 Zn
DOCKED: ATOM      9  O2  DVT A 531     -27.281 -33.695 -30.073 +0.02 -0.08    -0.750 OA
DOCKED: ATOM     10  O4  DVT A 531     -28.724 -33.923 -27.843 +0.01 +0.01    -0.750 OA
DOCKED: ATOM     11  O8  DVT A 531     -26.156 -33.114 -27.804 +0.01 -0.01    -0.750 OA
DOCKED: ATOM     12  O26 DVT A 531     -26.849 -35.675 -26.830 +0.00 +0.04    -0.750 OA
DOCKED: ATOM     13  O24 DVT A 531     -25.425 -35.240 -29.027 +0.00 +0.01    -0.750 OA
DOCKED: ATOM     14  V7  DVT A 531     -24.340 -33.832 -28.050 +0.00 -0.03    +1.500 Zn
DOCKED: ATOM     15  O11 DVT A 531     -23.627 -32.216 -27.794 +0.01 +0.01    -0.750 OA
DOCKED: ATOM     16  O25 DVT A 531     -24.105 -34.878 -26.857 +0.00 +0.04    -0.750 OA
DOCKED: ATOM     17  O21 DVT A 531     -22.904 -34.356 -29.078 +0.00 +0.02    -0.750 OA
DOCKED: ATOM     18  V6  DVT A 531     -22.668 -33.560 -30.753 +0.02 +0.03    +1.500 Zn
DOCKED: ATOM     19  O19 DVT A 531     -23.353 -32.785 -32.323 +0.03 -0.11    -0.750 OA
DOCKED: ATOM     20  O22 DVT A 531     -21.281 -34.274 -31.122 +0.00 +0.03    -0.750 OA
DOCKED: ATOM     21  O6  DVT A 531     -22.180 -31.938 -30.013 +0.01 -0.02    -0.750 OA
DOCKED: ATOM     22  V8  DVT A 531     -25.528 -34.675 -30.848 +0.02 +0.09    +1.500 Zn
DOCKED: ATOM     23  O20 DVT A 531     -23.983 -35.022 -31.380 +0.01 -0.01    -0.750 OA
DOCKED: ATOM     24  O23 DVT A 531     -26.512 -35.932 -31.347 +0.01 -0.01    -0.750 OA
DOCKED: ATOM     25  O16 DVT A 531     -24.769 -32.895 -30.043 +0.02 -0.09    -0.750 OA
DOCKED: ATOM     26  V5  DVT A 531     -23.602 -31.009 -29.239 +0.03 +0.12    +1.500 Zn
DOCKED: ATOM     27  O14 DVT A 531     -22.963 -29.656 -28.647 +0.01 -0.02    -0.750 OA
DOCKED: ATOM     28  O7  DVT A 531     -25.535 -30.636 -28.742 +0.02 -0.10    -0.750 OA
DOCKED: ATOM     29  V2  DVT A 531     -26.527 -31.894 -29.292 +0.04 +0.26    +1.500 Zn
DOCKED: ATOM     30  O1  DVT A 531     -28.081 -31.494 -28.793 +0.02 -0.10    -0.750 OA
DOCKED: ATOM     31  O17 DVT A 531     -26.010 -33.431 -32.254 +0.02 -0.23    -0.750 OA
DOCKED: ATOM     32  V4  DVT A 531     -24.822 -31.845 -31.989 +0.13 +0.81    +1.500 Zn
DOCKED: ATOM     33  O13 DVT A 531     -24.063 -30.516 -31.013 +0.02 -0.28    -0.750 OA
DOCKED: ATOM     34  O12 DVT A 531     -25.108 -31.013 -33.337 -0.40 -1.30    -0.750 OA
DOCKED: ATOM     35  O9  DVT A 531     -26.536 -31.369 -31.100 +0.01 -0.52    -0.750 OA
DOCKED: ATOM     36  V3  DVT A 531     -27.819 -32.658 -31.950 +0.09 +0.77    +1.500 Zn
DOCKED: ATOM     37  O3  DVT A 531     -29.257 -32.108 -30.989 +0.02 -0.24    -0.750 OA
DOCKED: ATOM     38  O10 DVT A 531     -28.074 -31.786 -33.295 -0.28 -1.13    -0.750 OA
DOCKED: ENDROOT
DOCKED: TORSDOF 0
DOCKED: TER
DOCKED: ENDMDL
________________________________________________________________________________


	BEGINNING GENETIC ALGORITHM DOCKING 19 of 50
Run: 19 Seed: 1836547040 1739858642 [ Run 19 of 50 GA/GALS ]
Beginning LAMARCKIAN GENETIC ALGORITHM (LGA), with a maximum of 2500000 energy evaluations.

Final-Value: -2.099


	FINAL GENETIC ALGORITHM DOCKED STATE
	_______________________________________________


Detailed state:  trans -26.572 -32.399 -29.765 quatxyzw -0.568684 0.616509 0.178924 -0.514298 center 38.166 -0.098 117.777 ntor 0
State:	-26.572 -32.399 -29.765  -0.663  0.719  0.209 -118.099  

DOCKED: MODEL       19
DOCKED: USER    Run = 19
DOCKED: USER    DPF = blind_docking.dpf
DOCKED: USER  
DOCKED: USER    Estimated Free Energy of Binding    =   -2.10 kcal/mol  [=(1)+(2)+(3)-(4)]
DOCKED: USER    Estimated Inhibition Constant, Ki   =   28.93 mM (millimolar)  [Temperature = 298.15 K]
DOCKED: USER    
DOCKED: USER    (1) Final Intermolecular Energy     =   -2.10 kcal/mol
DOCKED: USER        vdW + Hbond + desolv Energy     =   +0.24 kcal/mol
DOCKED: USER        Electrostatic Energy            =   -2.34 kcal/mol
DOCKED: USER    (2) Final Total Internal Energy     =   +0.00 kcal/mol
DOCKED: USER    (3) Torsional Free Energy           =   +0.00 kcal/mol
DOCKED: USER    (4) Unbound System's Energy  [=(2)] =   +0.00 kcal/mol
DOCKED: USER    
DOCKED: USER    
DOCKED: USER    NEWDPF move ../ligands/decavanadate.pdbqt
DOCKED: USER    NEWDPF about 38.166447 -0.097658 117.776763
DOCKED: USER    NEWDPF tran0 -26.572134 -32.399376 -29.764560
DOCKED: USER    NEWDPF quaternion0 -0.568684 0.616509 0.178924 -0.514298
DOCKED: USER    NEWDPF axisangle0 -0.663101 0.718867 0.208631 -118.098973
DOCKED: USER    NEWDPF quat0 -0.663101 0.718867 0.208631 -118.098973
DOCKED: USER  keepresnum = 1 
DOCKED: USER  
DOCKED: USER                              x       y       z     vdW  Elec       q    Type
DOCKED: USER                           _______ _______ _______ _____ _____    ______ ____
DOCKED: ROOT
DOCKED: ATOM      1  O28 DVT A 531     -31.183 -30.670 -29.621 +0.03 -0.07    -0.750 OA
DOCKED: ATOM      2  V10 DVT A 531     -29.887 -31.571 -29.696 +0.05 +0.23    +1.500 Zn
DOCKED: ATOM      3  O18 DVT A 531     -29.602 -32.316 -28.026 +0.01 -0.02    -0.750 OA
DOCKED: ATOM      4  O15 DVT A 531     -30.478 -33.263 -30.123 +0.01 -0.05    -0.750 OA
DOCKED: ATOM      5  V1  DVT A 531     -29.171 -34.532 -30.356 +0.01 +0.06    +1.500 Zn
DOCKED: ATOM      6  O5  DVT A 531     -29.977 -35.903 -30.692 +0.00 +0.01    -0.750 OA
DOCKED: ATOM      7  O27 DVT A 531     -29.433 -31.373 -31.517 -0.00 -0.39    -0.750 OA
DOCKED: ATOM      8  V9  DVT A 531     -27.952 -32.297 -32.086 +0.10 +1.02    +1.500 Zn
DOCKED: ATOM      9  O2  DVT A 531     -27.840 -32.706 -29.892 +0.02 -0.13    -0.750 OA
DOCKED: ATOM     10  O4  DVT A 531     -28.797 -33.887 -32.082 +0.02 -0.14    -0.750 OA
DOCKED: ATOM     11  O8  DVT A 531     -26.196 -33.234 -31.833 +0.02 -0.24    -0.750 OA
DOCKED: ATOM     12  O26 DVT A 531     -27.856 -31.787 -33.605 -0.14 -1.22    -0.750 OA
DOCKED: ATOM     13  O24 DVT A 531     -26.810 -30.792 -31.377 +0.04 -0.81    -0.750 OA
DOCKED: ATOM     14  V7  DVT A 531     -25.027 -31.651 -31.825 +0.12 +0.91    +1.500 Zn
DOCKED: ATOM     15  O11 DVT A 531     -23.590 -32.667 -31.528 +0.02 -0.11    -0.750 OA
DOCKED: ATOM     16  O25 DVT A 531     -25.122 -31.016 -33.296 -0.41 -1.30    -0.750 OA
DOCKED: ATOM     17  O21 DVT A 531     -24.229 -30.200 -31.018 +0.02 -0.32    -0.750 OA
DOCKED: ATOM     18  V6  DVT A 531     -23.937 -30.254 -29.173 +0.04 +0.17    +1.500 Zn
DOCKED: ATOM     19  O19 DVT A 531     -24.426 -30.794 -27.440 +0.01 -0.01    -0.750 OA
DOCKED: ATOM     20  O22 DVT A 531     -23.156 -28.860 -29.051 +0.02 -0.04    -0.750 OA
DOCKED: ATOM     21  O6  DVT A 531     -22.605 -31.527 -29.332 +0.01 -0.02    -0.750 OA
DOCKED: ATOM     22  V8  DVT A 531     -26.945 -30.793 -29.473 +0.05 +0.43    +1.500 Zn
DOCKED: ATOM     23  O20 DVT A 531     -25.881 -29.568 -29.075 +0.03 -0.17    -0.750 OA
DOCKED: ATOM     24  O23 DVT A 531     -28.484 -30.139 -29.425 +0.03 -0.20    -0.750 OA
DOCKED: ATOM     25  O16 DVT A 531     -25.293 -32.072 -29.638 +0.02 -0.12    -0.750 OA
DOCKED: ATOM     26  V5  DVT A 531     -23.241 -33.227 -29.765 +0.02 +0.03    +1.500 Zn
DOCKED: ATOM     27  O14 DVT A 531     -21.936 -34.162 -29.871 +0.00 +0.03    -0.750 OA
DOCKED: ATOM     28  O7  DVT A 531     -24.631 -34.662 -30.124 +0.01 -0.01    -0.750 OA
DOCKED: ATOM     29  V2  DVT A 531     -26.187 -33.997 -30.028 +0.03 +0.12    +1.500 Zn
DOCKED: ATOM     30  O1  DVT A 531     -27.239 -35.260 -30.378 +0.01 -0.02    -0.750 OA
DOCKED: ATOM     31  O17 DVT A 531     -27.006 -31.655 -27.738 +0.01 -0.04    -0.750 OA
DOCKED: ATOM     32  V4  DVT A 531     -25.175 -32.405 -27.455 +0.01 +0.00    +1.500 Zn
DOCKED: ATOM     33  O13 DVT A 531     -23.710 -33.367 -27.931 +0.00 +0.02    -0.750 OA
DOCKED: ATOM     34  O12 DVT A 531     -25.255 -32.849 -25.909 +0.00 +0.03    -0.750 OA
DOCKED: ATOM     35  O9  DVT A 531     -26.258 -33.921 -28.149 +0.01 -0.00    -0.750 OA
DOCKED: ATOM     36  V3  DVT A 531     -28.131 -33.296 -27.782 +0.01 +0.01    +1.500 Zn
DOCKED: ATOM     37  O3  DVT A 531     -28.931 -34.750 -28.518 +0.01 +0.01    -0.750 OA
DOCKED: ATOM     38  O10 DVT A 531     -28.165 -33.757 -26.227 +0.00 +0.03    -0.750 OA
DOCKED: ENDROOT
DOCKED: TORSDOF 0
DOCKED: TER
DOCKED: ENDMDL
________________________________________________________________________________


	BEGINNING GENETIC ALGORITHM DOCKING 20 of 50
Run: 20 Seed: 1474264201 1605422968 [ Run 20 of 50 GA/GALS ]
Beginning LAMARCKIAN GENETIC ALGORITHM (LGA), with a maximum of 2500000 energy evaluations.

Final-Value: -2.060


	FINAL GENETIC ALGORITHM DOCKED STATE
	_______________________________________________


Detailed state:  trans -25.966 -33.580 -30.283 quatxyzw -0.622113 0.193500 -0.710439 0.266099 center 38.166 -0.098 117.777 ntor 0
State:	-25.966 -33.580 -30.283  -0.645  0.201 -0.737 149.136  

DOCKED: MODEL       20
DOCKED: USER    Run = 20
DOCKED: USER    DPF = blind_docking.dpf
DOCKED: USER  
DOCKED: USER    Estimated Free Energy of Binding    =   -2.06 kcal/mol  [=(1)+(2)+(3)-(4)]
DOCKED: USER    Estimated Inhibition Constant, Ki   =   30.89 mM (millimolar)  [Temperature = 298.15 K]
DOCKED: USER    
DOCKED: USER    (1) Final Intermolecular Energy     =   -2.06 kcal/mol
DOCKED: USER        vdW + Hbond + desolv Energy     =   -0.02 kcal/mol
DOCKED: USER        Electrostatic Energy            =   -2.04 kcal/mol
DOCKED: USER    (2) Final Total Internal Energy     =   +0.00 kcal/mol
DOCKED: USER    (3) Torsional Free Energy           =   +0.00 kcal/mol
DOCKED: USER    (4) Unbound System's Energy  [=(2)] =   +0.00 kcal/mol
DOCKED: USER    
DOCKED: USER    
DOCKED: USER    NEWDPF move ../ligands/decavanadate.pdbqt
DOCKED: USER    NEWDPF about 38.166447 -0.097658 117.776763
DOCKED: USER    NEWDPF tran0 -25.966383 -33.579647 -30.282620
DOCKED: USER    NEWDPF quaternion0 -0.622113 0.193500 -0.710439 0.266099
DOCKED: USER    NEWDPF axisangle0 -0.645382 0.200738 -0.737012 149.135524
DOCKED: USER    NEWDPF quat0 -0.645382 0.200738 -0.737012 149.135524
DOCKED: USER  keepresnum = 1 
DOCKED: USER  
DOCKED: USER                              x       y       z     vdW  Elec       q    Type
DOCKED: USER                           _______ _______ _______ _____ _____    ______ ____
DOCKED: ROOT
DOCKED: ATOM      1  O28 DVT A 531     -29.124 -36.985 -31.928 +0.00 +0.03    -0.750 OA
DOCKED: ATOM      2  V10 DVT A 531     -28.440 -35.716 -31.279 +0.01 +0.02    +1.500 Zn
DOCKED: ATOM      3  O18 DVT A 531     -28.596 -34.304 -32.466 +0.02 -0.12    -0.750 OA
DOCKED: ATOM      4  O15 DVT A 531     -29.781 -34.835 -30.373 +0.01 -0.01    -0.750 OA
DOCKED: ATOM      5  V1  DVT A 531     -29.266 -33.338 -29.442 +0.02 +0.10    +1.500 Zn
DOCKED: ATOM      6  O5  DVT A 531     -30.636 -32.769 -28.778 +0.01 -0.02    -0.750 OA
DOCKED: ATOM      7  O27 DVT A 531     -27.908 -36.424 -29.613 +0.00 +0.02    -0.750 OA
DOCKED: ATOM      8  V9  DVT A 531     -27.065 -35.259 -28.472 +0.00 -0.03    +1.500 Zn
DOCKED: ATOM      9  O2  DVT A 531     -27.217 -33.972 -30.292 +0.02 -0.08    -0.750 OA
DOCKED: ATOM     10  O4  DVT A 531     -28.584 -34.394 -28.043 +0.01 +0.01    -0.750 OA
DOCKED: ATOM     11  O8  DVT A 531     -26.006 -33.614 -28.021 +0.01 -0.00    -0.750 OA
DOCKED: ATOM     12  O26 DVT A 531     -26.697 -36.249 -27.264 +0.00 +0.04    -0.750 OA
DOCKED: ATOM     13  O24 DVT A 531     -25.345 -35.623 -29.461 +0.00 +0.01    -0.750 OA
DOCKED: ATOM     14  V7  DVT A 531     -24.209 -34.322 -28.397 +0.00 -0.03    +1.500 Zn
DOCKED: ATOM     15  O11 DVT A 531     -23.468 -32.743 -28.018 +0.01 +0.01    -0.750 OA
DOCKED: ATOM     16  O25 DVT A 531     -23.946 -35.477 -27.315 +0.00 +0.04    -0.750 OA
DOCKED: ATOM     17  O21 DVT A 531     -22.816 -34.761 -29.520 +0.00 +0.02    -0.750 OA
DOCKED: ATOM     18  V6  DVT A 531     -22.629 -33.815 -31.121 +0.02 +0.02    +1.500 Zn
DOCKED: ATOM     19  O19 DVT A 531     -23.359 -32.892 -32.588 +0.03 -0.11    -0.750 OA
DOCKED: ATOM     20  O22 DVT A 531     -21.264 -34.503 -31.604 +0.00 +0.03    -0.750 OA
DOCKED: ATOM     21  O6  DVT A 531     -22.096 -32.273 -30.252 +0.01 -0.01    -0.750 OA
DOCKED: ATOM     22  V8  DVT A 531     -25.504 -34.890 -31.216 +0.02 +0.08    +1.500 Zn
DOCKED: ATOM     23  O20 DVT A 531     -23.983 -35.201 -31.833 +0.01 -0.01    -0.750 OA
DOCKED: ATOM     24  O23 DVT A 531     -26.520 -36.088 -31.794 +0.01 -0.01    -0.750 OA
DOCKED: ATOM     25  O16 DVT A 531     -24.696 -33.200 -30.278 +0.02 -0.08    -0.750 OA
DOCKED: ATOM     26  V5  DVT A 531     -23.479 -31.408 -29.345 +0.03 +0.11    +1.500 Zn
DOCKED: ATOM     27  O14 DVT A 531     -22.804 -30.121 -28.654 +0.01 -0.02    -0.750 OA
DOCKED: ATOM     28  O7  DVT A 531     -25.389 -31.065 -28.747 +0.02 -0.09    -0.750 OA
DOCKED: ATOM     29  V2  DVT A 531     -26.414 -32.258 -29.375 +0.03 +0.23    +1.500 Zn
DOCKED: ATOM     30  O1  DVT A 531     -27.945 -31.892 -28.786 +0.02 -0.09    -0.750 OA
DOCKED: ATOM     31  O17 DVT A 531     -26.020 -33.517 -32.483 +0.02 -0.23    -0.750 OA
DOCKED: ATOM     32  V4  DVT A 531     -24.804 -31.974 -32.116 +0.13 +0.78    +1.500 Zn
DOCKED: ATOM     33  O13 DVT A 531     -23.996 -30.748 -31.048 +0.03 -0.26    -0.750 OA
DOCKED: ATOM     34  O12 DVT A 531     -25.127 -31.017 -33.370 -0.38 -1.32    -0.750 OA
DOCKED: ATOM     35  O9  DVT A 531     -26.480 -31.567 -31.125 +0.01 -0.48    -0.750 OA
DOCKED: ATOM     36  V3  DVT A 531     -27.808 -32.760 -32.045 +0.09 +0.74    +1.500 Zn
DOCKED: ATOM     37  O3  DVT A 531     -29.204 -32.290 -30.985 +0.02 -0.22    -0.750 OA
DOCKED: ATOM     38  O10 DVT A 531     -28.099 -31.765 -33.292 -0.29 -1.14    -0.750 OA
DOCKED: ENDROOT
DOCKED: TORSDOF 0
DOCKED: TER
DOCKED: ENDMDL
________________________________________________________________________________


	BEGINNING GENETIC ALGORITHM DOCKING 21 of 50
Run: 21 Seed: 1176724507 1340714435 [ Run 21 of 50 GA/GALS ]
Beginning LAMARCKIAN GENETIC ALGORITHM (LGA), with a maximum of 2500000 energy evaluations.

Final-Value: -2.069


	FINAL GENETIC ALGORITHM DOCKED STATE
	_______________________________________________


Detailed state:  trans -25.923 -32.477 -29.767 quatxyzw -0.538828 0.665110 0.231554 -0.462250 center 38.166 -0.098 117.777 ntor 0
State:	-25.923 -32.477 -29.767  -0.608  0.750  0.261 -124.935  

DOCKED: MODEL       21
DOCKED: USER    Run = 21
DOCKED: USER    DPF = blind_docking.dpf
DOCKED: USER  
DOCKED: USER    Estimated Free Energy of Binding    =   -2.07 kcal/mol  [=(1)+(2)+(3)-(4)]
DOCKED: USER    Estimated Inhibition Constant, Ki   =   30.44 mM (millimolar)  [Temperature = 298.15 K]
DOCKED: USER    
DOCKED: USER    (1) Final Intermolecular Energy     =   -2.07 kcal/mol
DOCKED: USER        vdW + Hbond + desolv Energy     =   +0.18 kcal/mol
DOCKED: USER        Electrostatic Energy            =   -2.25 kcal/mol
DOCKED: USER    (2) Final Total Internal Energy     =   +0.00 kcal/mol
DOCKED: USER    (3) Torsional Free Energy           =   +0.00 kcal/mol
DOCKED: USER    (4) Unbound System's Energy  [=(2)] =   +0.00 kcal/mol
DOCKED: USER    
DOCKED: USER    
DOCKED: USER    NEWDPF move ../ligands/decavanadate.pdbqt
DOCKED: USER    NEWDPF about 38.166447 -0.097658 117.776763
DOCKED: USER    NEWDPF tran0 -25.922948 -32.476957 -29.766856
DOCKED: USER    NEWDPF quaternion0 -0.538828 0.665110 0.231554 -0.462250
DOCKED: USER    NEWDPF axisangle0 -0.607644 0.750055 0.261126 -124.935159
DOCKED: USER    NEWDPF quat0 -0.607644 0.750055 0.261126 -124.935159
DOCKED: USER  keepresnum = 1 
DOCKED: USER  
DOCKED: USER                              x       y       z     vdW  Elec       q    Type
DOCKED: USER                           _______ _______ _______ _____ _____    ______ ____
DOCKED: ROOT
DOCKED: ATOM      1  O28 DVT A 531     -30.392 -30.670 -28.747 +0.02 -0.06    -0.750 OA
DOCKED: ATOM      2  V10 DVT A 531     -29.150 -31.592 -29.075 +0.03 +0.19    +1.500 Zn
DOCKED: ATOM      3  O18 DVT A 531     -28.579 -32.376 -27.499 +0.01 -0.01    -0.750 OA
DOCKED: ATOM      4  O15 DVT A 531     -29.846 -33.265 -29.415 +0.01 -0.04    -0.750 OA
DOCKED: ATOM      5  V1  DVT A 531     -28.631 -34.551 -29.906 +0.01 +0.05    +1.500 Zn
DOCKED: ATOM      6  O5  DVT A 531     -29.513 -35.900 -30.112 +0.00 +0.02    -0.750 OA
DOCKED: ATOM      7  O27 DVT A 531     -29.035 -31.364 -30.944 +0.02 -0.34    -0.750 OA
DOCKED: ATOM      8  V9  DVT A 531     -27.703 -32.302 -31.792 +0.09 +0.92    +1.500 Zn
DOCKED: ATOM      9  O2  DVT A 531     -27.199 -32.758 -29.664 +0.02 -0.12    -0.750 OA
DOCKED: ATOM     10  O4  DVT A 531     -28.566 -33.877 -31.661 +0.02 -0.13    -0.750 OA
DOCKED: ATOM     11  O8  DVT A 531     -25.950 -33.275 -31.883 +0.02 -0.23    -0.750 OA
DOCKED: ATOM     12  O26 DVT A 531     -27.877 -31.763 -33.294 -0.18 -1.19    -0.750 OA
DOCKED: ATOM     13  O24 DVT A 531     -26.419 -30.833 -31.280 +0.02 -0.72    -0.750 OA
DOCKED: ATOM     14  V7  DVT A 531     -24.767 -31.713 -32.064 +0.13 +0.87    +1.500 Zn
DOCKED: ATOM     15  O11 DVT A 531     -23.322 -32.760 -32.053 +0.03 -0.11    -0.750 OA
DOCKED: ATOM     16  O25 DVT A 531     -25.117 -31.046 -33.481 -0.38 -1.30    -0.750 OA
DOCKED: ATOM     17  O21 DVT A 531     -23.804 -30.293 -31.393 +0.02 -0.30    -0.750 OA
DOCKED: ATOM     18  V6  DVT A 531     -23.179 -30.391 -29.634 +0.04 +0.14    +1.500 Zn
DOCKED: ATOM     19  O19 DVT A 531     -23.353 -30.958 -27.850 +0.01 -0.00    -0.750 OA
DOCKED: ATOM     20  O22 DVT A 531     -22.360 -29.013 -29.634 +0.02 -0.03    -0.750 OA
DOCKED: ATOM     21  O6  DVT A 531     -21.926 -31.683 -30.057 +0.01 -0.01    -0.750 OA
DOCKED: ATOM     22  V8  DVT A 531     -26.203 -30.871 -29.384 +0.05 +0.37    +1.500 Zn
DOCKED: ATOM     23  O20 DVT A 531     -25.058 -29.673 -29.168 +0.03 -0.14    -0.750 OA
DOCKED: ATOM     24  O23 DVT A 531     -27.692 -30.191 -29.042 +0.02 -0.17    -0.750 OA
DOCKED: ATOM     25  O16 DVT A 531     -24.636 -32.174 -29.872 +0.02 -0.11    -0.750 OA
DOCKED: ATOM     26  V5  DVT A 531     -22.666 -33.362 -30.394 +0.02 +0.02    +1.500 Zn
DOCKED: ATOM     27  O14 DVT A 531     -21.423 -34.318 -30.755 +0.00 +0.03    -0.750 OA
DOCKED: ATOM     28  O7  DVT A 531     -24.129 -34.765 -30.516 +0.01 -0.01    -0.750 OA
DOCKED: ATOM     29  V2  DVT A 531     -25.626 -34.075 -30.124 +0.02 +0.10    +1.500 Zn
DOCKED: ATOM     30  O1  DVT A 531     -26.751 -35.312 -30.296 +0.01 -0.01    -0.750 OA
DOCKED: ATOM     31  O17 DVT A 531     -25.961 -31.767 -27.683 +0.01 -0.03    -0.750 OA
DOCKED: ATOM     32  V4  DVT A 531     -24.125 -32.555 -27.754 +0.01 -0.01    +1.500 Zn
DOCKED: ATOM     33  O13 DVT A 531     -22.794 -33.532 -28.508 +0.00 +0.02    -0.750 OA
DOCKED: ATOM     34  O12 DVT A 531     -23.930 -33.029 -26.228 +0.00 +0.04    -0.750 OA
DOCKED: ATOM     35  O9  DVT A 531     -25.350 -34.037 -28.263 +0.01 +0.00    -0.750 OA
DOCKED: ATOM     36  V3  DVT A 531     -27.110 -33.387 -27.546 +0.01 -0.00    +1.500 Zn
DOCKED: ATOM     37  O3  DVT A 531     -28.061 -34.811 -28.148 +0.00 +0.01    -0.750 OA
DOCKED: ATOM     38  O10 DVT A 531     -26.867 -33.880 -26.020 +0.00 +0.03    -0.750 OA
DOCKED: ENDROOT
DOCKED: TORSDOF 0
DOCKED: TER
DOCKED: ENDMDL
________________________________________________________________________________


	BEGINNING GENETIC ALGORITHM DOCKING 22 of 50
Run: 22 Seed: 402727309 1757920665 [ Run 22 of 50 GA/GALS ]
Beginning LAMARCKIAN GENETIC ALGORITHM (LGA), with a maximum of 2500000 energy evaluations.

Final-Value: -2.067


	FINAL GENETIC ALGORITHM DOCKED STATE
	_______________________________________________


Detailed state:  trans -26.817 -32.065 -29.664 quatxyzw 0.590080 -0.612063 -0.129167 0.510393 center 38.166 -0.098 117.777 ntor 0
State:	-26.817 -32.065 -29.664   0.686 -0.712 -0.150 118.620  

DOCKED: MODEL       22
DOCKED: USER    Run = 22
DOCKED: USER    DPF = blind_docking.dpf
DOCKED: USER  
DOCKED: USER    Estimated Free Energy of Binding    =   -2.07 kcal/mol  [=(1)+(2)+(3)-(4)]
DOCKED: USER    Estimated Inhibition Constant, Ki   =   30.52 mM (millimolar)  [Temperature = 298.15 K]
DOCKED: USER    
DOCKED: USER    (1) Final Intermolecular Energy     =   -2.07 kcal/mol
DOCKED: USER        vdW + Hbond + desolv Energy     =   +0.33 kcal/mol
DOCKED: USER        Electrostatic Energy            =   -2.39 kcal/mol
DOCKED: USER    (2) Final Total Internal Energy     =   +0.00 kcal/mol
DOCKED: USER    (3) Torsional Free Energy           =   +0.00 kcal/mol
DOCKED: USER    (4) Unbound System's Energy  [=(2)] =   +0.00 kcal/mol
DOCKED: USER    
DOCKED: USER    
DOCKED: USER    NEWDPF move ../ligands/decavanadate.pdbqt
DOCKED: USER    NEWDPF about 38.166447 -0.097658 117.776763
DOCKED: USER    NEWDPF tran0 -26.817294 -32.064908 -29.664274
DOCKED: USER    NEWDPF quaternion0 0.590080 -0.612063 -0.129167 0.510393
DOCKED: USER    NEWDPF axisangle0 0.686186 -0.711750 -0.150204 118.620003
DOCKED: USER    NEWDPF quat0 0.686186 -0.711750 -0.150204 118.620003
DOCKED: USER  keepresnum = 1 
DOCKED: USER  
DOCKED: USER                              x       y       z     vdW  Elec       q    Type
DOCKED: USER                           _______ _______ _______ _____ _____    ______ ____
DOCKED: ROOT
DOCKED: ATOM      1  O28 DVT A 531     -31.391 -30.258 -29.968 +0.05 -0.08    -0.750 OA
DOCKED: ATOM      2  V10 DVT A 531     -30.111 -31.182 -29.882 +0.07 +0.26    +1.500 Zn
DOCKED: ATOM      3  O18 DVT A 531     -29.948 -31.784 -28.139 +0.01 -0.03    -0.750 OA
DOCKED: ATOM      4  O15 DVT A 531     -30.710 -32.896 -30.200 +0.02 -0.06    -0.750 OA
DOCKED: ATOM      5  V1  DVT A 531     -29.418 -34.200 -30.238 +0.02 +0.08    +1.500 Zn
DOCKED: ATOM      6  O5  DVT A 531     -30.229 -35.582 -30.508 +0.00 +0.01    -0.750 OA
DOCKED: ATOM      7  O27 DVT A 531     -29.539 -31.149 -31.679 -0.02 -0.44    -0.750 OA
DOCKED: ATOM      8  V9  DVT A 531     -28.045 -32.142 -32.070 +0.10 +1.10    +1.500 Zn
DOCKED: ATOM      9  O2  DVT A 531     -28.081 -32.361 -29.847 +0.02 -0.15    -0.750 OA
DOCKED: ATOM     10  O4  DVT A 531     -28.922 -33.713 -31.986 +0.02 -0.15    -0.750 OA
DOCKED: ATOM     11  O8  DVT A 531     -26.329 -33.082 -31.625 +0.02 -0.25    -0.750 OA
DOCKED: ATOM     12  O26 DVT A 531     -27.843 -31.768 -33.618 -0.13 -1.24    -0.750 OA
DOCKED: ATOM     13  O24 DVT A 531     -26.919 -30.600 -31.420 +0.07 -0.91    -0.750 OA
DOCKED: ATOM     14  V7  DVT A 531     -25.130 -31.522 -31.677 +0.12 +0.94    +1.500 Zn
DOCKED: ATOM     15  O11 DVT A 531     -23.737 -32.530 -31.202 +0.02 -0.12    -0.750 OA
DOCKED: ATOM     16  O25 DVT A 531     -25.118 -31.015 -33.200 -0.41 -1.26    -0.750 OA
DOCKED: ATOM     17  O21 DVT A 531     -24.354 -30.019 -30.947 +0.02 -0.34    -0.750 OA
DOCKED: ATOM     18  V6  DVT A 531     -24.180 -29.918 -29.089 +0.04 +0.18    +1.500 Zn
DOCKED: ATOM     19  O19 DVT A 531     -24.789 -30.298 -27.351 +0.01 -0.02    -0.750 OA
DOCKED: ATOM     20  O22 DVT A 531     -23.379 -28.530 -29.037 +0.02 -0.05    -0.750 OA
DOCKED: ATOM     21  O6  DVT A 531     -22.868 -31.220 -29.052 +0.01 -0.02    -0.750 OA
DOCKED: ATOM     22  V8  DVT A 531     -27.174 -30.434 -29.536 +0.06 +0.48    +1.500 Zn
DOCKED: ATOM     23  O20 DVT A 531     -26.112 -29.196 -29.176 +0.03 -0.19    -0.750 OA
DOCKED: ATOM     24  O23 DVT A 531     -28.699 -29.754 -29.644 +0.04 -0.23    -0.750 OA
DOCKED: ATOM     25  O16 DVT A 531     -25.542 -31.747 -29.484 +0.02 -0.13    -0.750 OA
DOCKED: ATOM     26  V5  DVT A 531     -23.511 -32.941 -29.378 +0.01 +0.04    +1.500 Zn
DOCKED: ATOM     27  O14 DVT A 531     -22.221 -33.902 -29.319 +0.00 +0.02    -0.750 OA
DOCKED: ATOM     28  O7  DVT A 531     -24.906 -34.380 -29.703 +0.01 -0.02    -0.750 OA
DOCKED: ATOM     29  V2  DVT A 531     -26.450 -33.685 -29.765 +0.02 +0.13    +1.500 Zn
DOCKED: ATOM     30  O1  DVT A 531     -27.504 -34.957 -30.073 +0.01 -0.02    -0.750 OA
DOCKED: ATOM     31  O17 DVT A 531     -27.362 -31.141 -27.741 +0.01 -0.04    -0.750 OA
DOCKED: ATOM     32  V4  DVT A 531     -25.569 -31.892 -27.277 +0.01 +0.01    +1.500 Zn
DOCKED: ATOM     33  O13 DVT A 531     -24.098 -32.914 -27.573 +0.00 +0.01    -0.750 OA
DOCKED: ATOM     34  O12 DVT A 531     -25.756 -32.199 -25.708 +0.00 +0.03    -0.750 OA
DOCKED: ATOM     35  O9  DVT A 531     -26.638 -33.445 -27.908 +0.01 -0.01    -0.750 OA
DOCKED: ATOM     36  V3  DVT A 531     -28.517 -32.762 -27.717 +0.01 +0.02    +1.500 Zn
DOCKED: ATOM     37  O3  DVT A 531     -29.299 -34.262 -28.376 +0.01 +0.00    -0.750 OA
DOCKED: ATOM     38  O10 DVT A 531     -28.659 -33.086 -26.134 +0.00 +0.03    -0.750 OA
DOCKED: ENDROOT
DOCKED: TORSDOF 0
DOCKED: TER
DOCKED: ENDMDL
________________________________________________________________________________


	BEGINNING GENETIC ALGORITHM DOCKING 23 of 50
Run: 23 Seed: 206360230 2069407031 [ Run 23 of 50 GA/GALS ]
Beginning LAMARCKIAN GENETIC ALGORITHM (LGA), with a maximum of 2500000 energy evaluations.

Final-Value: -2.088


	FINAL GENETIC ALGORITHM DOCKED STATE
	_______________________________________________


Detailed state:  trans -25.984 -32.550 -29.742 quatxyzw 0.540944 -0.652636 -0.237447 0.474410 center 38.166 -0.098 117.777 ntor 0
State:	-25.984 -32.550 -29.742   0.614 -0.741 -0.270 123.358  

DOCKED: MODEL       23
DOCKED: USER    Run = 23
DOCKED: USER    DPF = blind_docking.dpf
DOCKED: USER  
DOCKED: USER    Estimated Free Energy of Binding    =   -2.09 kcal/mol  [=(1)+(2)+(3)-(4)]
DOCKED: USER    Estimated Inhibition Constant, Ki   =   29.47 mM (millimolar)  [Temperature = 298.15 K]
DOCKED: USER    
DOCKED: USER    (1) Final Intermolecular Energy     =   -2.09 kcal/mol
DOCKED: USER        vdW + Hbond + desolv Energy     =   +0.15 kcal/mol
DOCKED: USER        Electrostatic Energy            =   -2.24 kcal/mol
DOCKED: USER    (2) Final Total Internal Energy     =   +0.00 kcal/mol
DOCKED: USER    (3) Torsional Free Energy           =   +0.00 kcal/mol
DOCKED: USER    (4) Unbound System's Energy  [=(2)] =   +0.00 kcal/mol
DOCKED: USER    
DOCKED: USER    
DOCKED: USER    NEWDPF move ../ligands/decavanadate.pdbqt
DOCKED: USER    NEWDPF about 38.166447 -0.097658 117.776763
DOCKED: USER    NEWDPF tran0 -25.983686 -32.549714 -29.742422
DOCKED: USER    NEWDPF quaternion0 0.540944 -0.652636 -0.237447 0.474410
DOCKED: USER    NEWDPF axisangle0 0.614497 -0.741376 -0.269733 123.358155
DOCKED: USER    NEWDPF quat0 0.614497 -0.741376 -0.269733 123.358155
DOCKED: USER  keepresnum = 1 
DOCKED: USER  
DOCKED: USER                              x       y       z     vdW  Elec       q    Type
DOCKED: USER                           _______ _______ _______ _____ _____    ______ ____
DOCKED: ROOT
DOCKED: ATOM      1  O28 DVT A 531     -30.503 -30.840 -28.780 +0.02 -0.06    -0.750 OA
DOCKED: ATOM      2  V10 DVT A 531     -29.239 -31.734 -29.102 +0.02 +0.18    +1.500 Zn
DOCKED: ATOM      3  O18 DVT A 531     -28.691 -32.548 -27.533 +0.01 -0.01    -0.750 OA
DOCKED: ATOM      4  O15 DVT A 531     -29.900 -33.408 -29.499 +0.01 -0.04    -0.750 OA
DOCKED: ATOM      5  V1  DVT A 531     -28.654 -34.662 -29.994 +0.01 +0.05    +1.500 Zn
DOCKED: ATOM      6  O5  DVT A 531     -29.508 -36.020 -30.252 +0.00 +0.02    -0.750 OA
DOCKED: ATOM      7  O27 DVT A 531     -29.086 -31.457 -30.962 +0.02 -0.33    -0.750 OA
DOCKED: ATOM      8  V9  DVT A 531     -27.721 -32.352 -31.802 +0.09 +0.89    +1.500 Zn
DOCKED: ATOM      9  O2  DVT A 531     -27.257 -32.854 -29.676 +0.02 -0.11    -0.750 OA
DOCKED: ATOM     10  O4  DVT A 531     -28.561 -33.943 -31.729 +0.02 -0.13    -0.750 OA
DOCKED: ATOM     11  O8  DVT A 531     -25.951 -33.296 -31.878 +0.02 -0.22    -0.750 OA
DOCKED: ATOM     12  O26 DVT A 531     -27.871 -31.779 -33.294 -0.18 -1.18    -0.750 OA
DOCKED: ATOM     13  O24 DVT A 531     -26.473 -30.877 -31.225 +0.02 -0.69    -0.750 OA
DOCKED: ATOM     14  V7  DVT A 531     -24.790 -31.710 -31.993 +0.13 +0.85    +1.500 Zn
DOCKED: ATOM     15  O11 DVT A 531     -23.329 -32.734 -31.976 +0.03 -0.11    -0.750 OA
DOCKED: ATOM     16  O25 DVT A 531     -25.119 -31.014 -33.401 -0.39 -1.32    -0.750 OA
DOCKED: ATOM     17  O21 DVT A 531     -23.866 -30.293 -31.266 +0.02 -0.29    -0.750 OA
DOCKED: ATOM     18  V6  DVT A 531     -23.278 -30.425 -29.496 +0.04 +0.14    +1.500 Zn
DOCKED: ATOM     19  O19 DVT A 531     -23.482 -31.038 -27.731 +0.01 -0.00    -0.750 OA
DOCKED: ATOM     20  O22 DVT A 531     -22.482 -29.034 -29.444 +0.02 -0.03    -0.750 OA
DOCKED: ATOM     21  O6  DVT A 531     -21.995 -31.686 -29.923 +0.01 -0.01    -0.750 OA
DOCKED: ATOM     22  V8  DVT A 531     -26.298 -30.959 -29.327 +0.05 +0.35    +1.500 Zn
DOCKED: ATOM     23  O20 DVT A 531     -25.178 -29.749 -29.055 +0.03 -0.14    -0.750 OA
DOCKED: ATOM     24  O23 DVT A 531     -27.806 -30.311 -29.002 +0.02 -0.16    -0.750 OA
DOCKED: ATOM     25  O16 DVT A 531     -24.700 -32.224 -29.812 +0.02 -0.10    -0.750 OA
DOCKED: ATOM     26  V5  DVT A 531     -22.700 -33.367 -30.318 +0.02 +0.02    +1.500 Zn
DOCKED: ATOM     27  O14 DVT A 531     -21.433 -34.294 -30.674 +0.00 +0.03    -0.750 OA
DOCKED: ATOM     28  O7  DVT A 531     -24.137 -34.790 -30.507 +0.01 -0.01    -0.750 OA
DOCKED: ATOM     29  V2  DVT A 531     -25.653 -34.134 -30.132 +0.02 +0.10    +1.500 Zn
DOCKED: ATOM     30  O1  DVT A 531     -26.753 -35.383 -30.359 +0.01 -0.01    -0.750 OA
DOCKED: ATOM     31  O17 DVT A 531     -26.079 -31.893 -27.643 +0.01 -0.02    -0.750 OA
DOCKED: ATOM     32  V4  DVT A 531     -24.230 -32.649 -27.692 +0.01 -0.01    +1.500 Zn
DOCKED: ATOM     33  O13 DVT A 531     -22.866 -33.586 -28.440 +0.00 +0.02    -0.750 OA
DOCKED: ATOM     34  O12 DVT A 531     -24.061 -33.158 -26.174 +0.00 +0.04    -0.750 OA
DOCKED: ATOM     35  O9  DVT A 531     -25.418 -34.137 -28.265 +0.01 +0.00    -0.750 OA
DOCKED: ATOM     36  V3  DVT A 531     -27.204 -33.534 -27.572 +0.01 -0.01    +1.500 Zn
DOCKED: ATOM     37  O3  DVT A 531     -28.119 -34.957 -28.230 +0.00 +0.01    -0.750 OA
DOCKED: ATOM     38  O10 DVT A 531     -26.988 -34.060 -26.053 +0.00 +0.03    -0.750 OA
DOCKED: ENDROOT
DOCKED: TORSDOF 0
DOCKED: TER
DOCKED: ENDMDL
________________________________________________________________________________


	BEGINNING GENETIC ALGORITHM DOCKING 24 of 50
Run: 24 Seed: 486255160 1809647317 [ Run 24 of 50 GA/GALS ]
Beginning LAMARCKIAN GENETIC ALGORITHM (LGA), with a maximum of 2500000 energy evaluations.

Final-Value: -2.099


	FINAL GENETIC ALGORITHM DOCKED STATE
	_______________________________________________


Detailed state:  trans -26.229 -32.217 -29.655 quatxyzw 0.527786 -0.055617 0.763054 -0.368914 center 38.166 -0.098 117.777 ntor 0
State:	-26.229 -32.217 -29.655   0.568 -0.060  0.821 -136.703  

DOCKED: MODEL       24
DOCKED: USER    Run = 24
DOCKED: USER    DPF = blind_docking.dpf
DOCKED: USER  
DOCKED: USER    Estimated Free Energy of Binding    =   -2.10 kcal/mol  [=(1)+(2)+(3)-(4)]
DOCKED: USER    Estimated Inhibition Constant, Ki   =   28.95 mM (millimolar)  [Temperature = 298.15 K]
DOCKED: USER    
DOCKED: USER    (1) Final Intermolecular Energy     =   -2.10 kcal/mol
DOCKED: USER        vdW + Hbond + desolv Energy     =   +0.12 kcal/mol
DOCKED: USER        Electrostatic Energy            =   -2.22 kcal/mol
DOCKED: USER    (2) Final Total Internal Energy     =   +0.00 kcal/mol
DOCKED: USER    (3) Torsional Free Energy           =   +0.00 kcal/mol
DOCKED: USER    (4) Unbound System's Energy  [=(2)] =   +0.00 kcal/mol
DOCKED: USER    
DOCKED: USER    
DOCKED: USER    NEWDPF move ../ligands/decavanadate.pdbqt
DOCKED: USER    NEWDPF about 38.166447 -0.097658 117.776763
DOCKED: USER    NEWDPF tran0 -26.228536 -32.217124 -29.654997
DOCKED: USER    NEWDPF quaternion0 0.527786 -0.055617 0.763054 -0.368914
DOCKED: USER    NEWDPF axisangle0 0.567839 -0.059837 0.820962 -136.702648
DOCKED: USER    NEWDPF quat0 0.567839 -0.059837 0.820962 -136.702648
DOCKED: USER  keepresnum = 1 
DOCKED: USER  
DOCKED: USER                              x       y       z     vdW  Elec       q    Type
DOCKED: USER                           _______ _______ _______ _____ _____    ______ ____
DOCKED: ROOT
DOCKED: ATOM      1  O28 DVT A 531     -29.231 -36.098 -30.105 +0.00 +0.02    -0.750 OA
DOCKED: ATOM      2  V10 DVT A 531     -28.606 -34.654 -29.945 +0.01 +0.05    +1.500 Zn
DOCKED: ATOM      3  O18 DVT A 531     -28.657 -33.815 -31.594 +0.02 -0.13    -0.750 OA
DOCKED: ATOM      4  O15 DVT A 531     -30.021 -33.537 -29.562 +0.01 -0.03    -0.750 OA
DOCKED: ATOM      5  V1  DVT A 531     -29.589 -31.781 -29.244 +0.03 +0.17    +1.500 Zn
DOCKED: ATOM      6  O5  DVT A 531     -31.012 -31.046 -28.966 +0.02 -0.05    -0.750 OA
DOCKED: ATOM      7  O27 DVT A 531     -28.223 -34.647 -28.097 +0.00 +0.01    -0.750 OA
DOCKED: ATOM      8  V9  DVT A 531     -27.482 -33.104 -27.432 +0.01 +0.00    +1.500 Zn
DOCKED: ATOM      9  O2  DVT A 531     -27.474 -32.624 -29.613 +0.02 -0.12    -0.750 OA
DOCKED: ATOM     10  O4  DVT A 531     -29.033 -32.192 -27.495 +0.01 -0.01    -0.750 OA
DOCKED: ATOM     11  O8  DVT A 531     -26.467 -31.378 -27.568 +0.01 -0.03    -0.750 OA
DOCKED: ATOM     12  O26 DVT A 531     -27.222 -33.539 -25.908 +0.00 +0.03    -0.750 OA
DOCKED: ATOM     13  O24 DVT A 531     -25.682 -33.764 -28.059 +0.01 +0.00    -0.750 OA
DOCKED: ATOM     14  V7  DVT A 531     -24.644 -32.115 -27.493 +0.01 +0.00    +1.500 Zn
DOCKED: ATOM     15  O11 DVT A 531     -23.939 -30.488 -27.696 +0.01 -0.01    -0.750 OA
DOCKED: ATOM     16  O25 DVT A 531     -24.477 -32.755 -26.031 +0.00 +0.03    -0.750 OA
DOCKED: ATOM     17  O21 DVT A 531     -23.158 -32.906 -28.242 +0.01 +0.01    -0.750 OA
DOCKED: ATOM     18  V6  DVT A 531     -22.830 -32.645 -30.063 +0.02 +0.05    +1.500 Zn
DOCKED: ATOM     19  O19 DVT A 531     -23.428 -32.384 -31.827 +0.03 -0.13    -0.750 OA
DOCKED: ATOM     20  O22 DVT A 531     -21.429 -33.420 -30.129 +0.00 +0.02    -0.750 OA
DOCKED: ATOM     21  O6  DVT A 531     -22.375 -30.870 -29.818 +0.01 -0.03    -0.750 OA
DOCKED: ATOM     22  V8  DVT A 531     -25.687 -33.770 -29.968 +0.03 +0.12    +1.500 Zn
DOCKED: ATOM     23  O20 DVT A 531     -24.117 -34.243 -30.291 +0.01 -0.02    -0.750 OA
DOCKED: ATOM     24  O23 DVT A 531     -26.648 -35.131 -30.118 +0.01 -0.02    -0.750 OA
DOCKED: ATOM     25  O16 DVT A 531     -24.963 -31.823 -29.694 +0.02 -0.13    -0.750 OA
DOCKED: ATOM     26  V5  DVT A 531     -23.832 -29.770 -29.433 +0.06 +0.20    +1.500 Zn
DOCKED: ATOM     27  O14 DVT A 531     -23.220 -28.294 -29.241 +0.02 -0.05    -0.750 OA
DOCKED: ATOM     28  O7  DVT A 531     -25.787 -29.287 -29.170 +0.03 -0.17    -0.750 OA
DOCKED: ATOM     29  V2  DVT A 531     -26.754 -30.664 -29.370 +0.05 +0.41    +1.500 Zn
DOCKED: ATOM     30  O1  DVT A 531     -28.330 -30.151 -29.094 +0.03 -0.16    -0.750 OA
DOCKED: ATOM     31  O17 DVT A 531     -26.088 -33.010 -31.704 +0.02 -0.26    -0.750 OA
DOCKED: ATOM     32  V4  DVT A 531     -24.909 -31.404 -31.866 +0.13 +1.00    +1.500 Zn
DOCKED: ATOM     33  O13 DVT A 531     -24.197 -29.835 -31.294 +0.01 -0.38    -0.750 OA
DOCKED: ATOM     34  O12 DVT A 531     -25.120 -31.016 -33.414 -0.39 -1.32    -0.750 OA
DOCKED: ATOM     35  O9  DVT A 531     -26.665 -30.703 -31.249 +0.04 -0.76    -0.750 OA
DOCKED: ATOM     36  V3  DVT A 531     -27.908 -32.203 -31.740 +0.09 +0.93    +1.500 Zn
DOCKED: ATOM     37  O3  DVT A 531     -29.392 -31.408 -31.063 +0.02 -0.31    -0.750 OA
DOCKED: ATOM     38  O10 DVT A 531     -28.087 -31.776 -33.295 -0.29 -1.14    -0.750 OA
DOCKED: ENDROOT
DOCKED: TORSDOF 0
DOCKED: TER
DOCKED: ENDMDL
________________________________________________________________________________


	BEGINNING GENETIC ALGORITHM DOCKING 25 of 50
Run: 25 Seed: 2090724060 1423138551 [ Run 25 of 50 GA/GALS ]
Beginning LAMARCKIAN GENETIC ALGORITHM (LGA), with a maximum of 2500000 energy evaluations.

Final-Value: -2.061


	FINAL GENETIC ALGORITHM DOCKED STATE
	_______________________________________________


Detailed state:  trans -26.043 -33.060 -29.894 quatxyzw -0.500558 0.638384 0.275334 -0.515848 center 38.166 -0.098 117.777 ntor 0
State:	-26.043 -33.060 -29.894  -0.584  0.745  0.321 -117.892  

DOCKED: MODEL       25
DOCKED: USER    Run = 25
DOCKED: USER    DPF = blind_docking.dpf
DOCKED: USER  
DOCKED: USER    Estimated Free Energy of Binding    =   -2.06 kcal/mol  [=(1)+(2)+(3)-(4)]
DOCKED: USER    Estimated Inhibition Constant, Ki   =   30.87 mM (millimolar)  [Temperature = 298.15 K]
DOCKED: USER    
DOCKED: USER    (1) Final Intermolecular Energy     =   -2.06 kcal/mol
DOCKED: USER        vdW + Hbond + desolv Energy     =   +0.07 kcal/mol
DOCKED: USER        Electrostatic Energy            =   -2.13 kcal/mol
DOCKED: USER    (2) Final Total Internal Energy     =   +0.00 kcal/mol
DOCKED: USER    (3) Torsional Free Energy           =   +0.00 kcal/mol
DOCKED: USER    (4) Unbound System's Energy  [=(2)] =   +0.00 kcal/mol
DOCKED: USER    
DOCKED: USER    
DOCKED: USER    NEWDPF move ../ligands/decavanadate.pdbqt
DOCKED: USER    NEWDPF about 38.166447 -0.097658 117.776763
DOCKED: USER    NEWDPF tran0 -26.042643 -33.059891 -29.894437
DOCKED: USER    NEWDPF quaternion0 -0.500558 0.638384 0.275334 -0.515848
DOCKED: USER    NEWDPF axisangle0 -0.584299 0.745184 0.321397 -117.891752
DOCKED: USER    NEWDPF quat0 -0.584299 0.745184 0.321397 -117.891752
DOCKED: USER  keepresnum = 1 
DOCKED: USER  
DOCKED: USER                              x       y       z     vdW  Elec       q    Type
DOCKED: USER                           _______ _______ _______ _____ _____    ______ ____
DOCKED: ROOT
DOCKED: ATOM      1  O28 DVT A 531     -30.534 -31.404 -28.730 +0.02 -0.05    -0.750 OA
DOCKED: ATOM      2  V10 DVT A 531     -29.287 -32.271 -29.166 +0.02 +0.15    +1.500 Zn
DOCKED: ATOM      3  O18 DVT A 531     -28.769 -33.307 -27.722 +0.01 -0.00    -0.750 OA
DOCKED: ATOM      4  O15 DVT A 531     -29.977 -33.859 -29.796 +0.01 -0.03    -0.750 OA
DOCKED: ATOM      5  V1  DVT A 531     -28.753 -35.059 -30.453 +0.01 +0.04    +1.500 Zn
DOCKED: ATOM      6  O5  DVT A 531     -29.633 -36.349 -30.903 +0.00 +0.02    -0.750 OA
DOCKED: ATOM      7  O27 DVT A 531     -29.111 -31.742 -30.969 +0.02 -0.29    -0.750 OA
DOCKED: ATOM      8  V9  DVT A 531     -27.757 -32.541 -31.917 +0.09 +0.82    +1.500 Zn
DOCKED: ATOM      9  O2  DVT A 531     -27.323 -33.343 -29.878 +0.02 -0.09    -0.750 OA
DOCKED: ATOM     10  O4  DVT A 531     -28.630 -34.108 -32.071 +0.02 -0.12    -0.750 OA
DOCKED: ATOM     11  O8  DVT A 531     -26.006 -33.502 -32.113 +0.02 -0.21    -0.750 OA
DOCKED: ATOM     12  O26 DVT A 531     -27.882 -31.763 -33.316 -0.18 -1.20    -0.750 OA
DOCKED: ATOM     13  O24 DVT A 531     -26.485 -31.187 -31.133 +0.02 -0.57    -0.750 OA
DOCKED: ATOM     14  V7  DVT A 531     -24.812 -31.942 -31.999 +0.12 +0.77    +1.500 Zn
DOCKED: ATOM     15  O11 DVT A 531     -23.372 -32.989 -32.116 +0.03 -0.10    -0.750 OA
DOCKED: ATOM     16  O25 DVT A 531     -25.115 -31.050 -33.298 -0.41 -1.26    -0.750 OA
DOCKED: ATOM     17  O21 DVT A 531     -23.865 -30.659 -31.076 +0.03 -0.25    -0.750 OA
DOCKED: ATOM     18  V6  DVT A 531     -23.296 -31.048 -29.339 +0.03 +0.11    +1.500 Zn
DOCKED: ATOM     19  O19 DVT A 531     -23.529 -31.897 -27.677 +0.01 +0.01    -0.750 OA
DOCKED: ATOM     20  O22 DVT A 531     -22.473 -29.696 -29.089 +0.01 -0.02    -0.750 OA
DOCKED: ATOM     21  O6  DVT A 531     -22.036 -32.265 -29.929 +0.01 -0.00    -0.750 OA
DOCKED: ATOM     22  V8  DVT A 531     -26.328 -31.536 -29.263 +0.04 +0.28    +1.500 Zn
DOCKED: ATOM     23  O20 DVT A 531     -25.186 -30.400 -28.819 +0.02 -0.10    -0.750 OA
DOCKED: ATOM     24  O23 DVT A 531     -27.825 -30.907 -28.861 +0.02 -0.13    -0.750 OA
DOCKED: ATOM     25  O16 DVT A 531     -24.752 -32.756 -29.910 +0.02 -0.09    -0.750 OA
DOCKED: ATOM     26  V5  DVT A 531     -22.771 -33.860 -30.559 +0.01 +0.01    +1.500 Zn
DOCKED: ATOM     27  O14 DVT A 531     -21.521 -34.755 -31.032 +0.00 +0.03    -0.750 OA
DOCKED: ATOM     28  O7  DVT A 531     -24.235 -35.212 -30.952 +0.01 -0.00    -0.750 OA
DOCKED: ATOM     29  V2  DVT A 531     -25.741 -34.581 -30.499 +0.02 +0.08    +1.500 Zn
DOCKED: ATOM     30  O1  DVT A 531     -26.865 -35.763 -30.904 +0.01 -0.01    -0.750 OA
DOCKED: ATOM     31  O17 DVT A 531     -26.144 -32.699 -27.725 +0.01 -0.01    -0.750 OA
DOCKED: ATOM     32  V4  DVT A 531     -24.310 -33.481 -27.867 +0.00 -0.02    +1.500 Zn
DOCKED: ATOM     33  O13 DVT A 531     -22.959 -34.334 -28.730 +0.00 +0.02    -0.750 OA
DOCKED: ATOM     34  O12 DVT A 531     -24.164 -34.199 -26.434 +0.00 +0.04    -0.750 OA
DOCKED: ATOM     35  O9  DVT A 531     -25.523 -34.849 -28.649 +0.01 +0.01    -0.750 OA
DOCKED: ATOM     36  V3  DVT A 531     -27.303 -34.309 -27.890 +0.00 -0.02    +1.500 Zn
DOCKED: ATOM     37  O3  DVT A 531     -28.240 -35.608 -28.744 +0.00 +0.02    -0.750 OA
DOCKED: ATOM     38  O10 DVT A 531     -27.110 -35.046 -26.457 +0.00 +0.04    -0.750 OA
DOCKED: ENDROOT
DOCKED: TORSDOF 0
DOCKED: TER
DOCKED: ENDMDL
________________________________________________________________________________


	BEGINNING GENETIC ALGORITHM DOCKING 26 of 50
Run: 26 Seed: 1767880159 140084937 [ Run 26 of 50 GA/GALS ]
Beginning LAMARCKIAN GENETIC ALGORITHM (LGA), with a maximum of 2500000 energy evaluations.

Final-Value: -2.101


	FINAL GENETIC ALGORITHM DOCKED STATE
	_______________________________________________


Detailed state:  trans -26.715 -32.384 -29.804 quatxyzw -0.569853 0.609263 0.165779 -0.525912 center 38.166 -0.098 117.777 ntor 0
State:	-26.715 -32.384 -29.804  -0.670  0.716  0.195 -116.541  

DOCKED: MODEL       26
DOCKED: USER    Run = 26
DOCKED: USER    DPF = blind_docking.dpf
DOCKED: USER  
DOCKED: USER    Estimated Free Energy of Binding    =   -2.10 kcal/mol  [=(1)+(2)+(3)-(4)]
DOCKED: USER    Estimated Inhibition Constant, Ki   =   28.85 mM (millimolar)  [Temperature = 298.15 K]
DOCKED: USER    
DOCKED: USER    (1) Final Intermolecular Energy     =   -2.10 kcal/mol
DOCKED: USER        vdW + Hbond + desolv Energy     =   +0.28 kcal/mol
DOCKED: USER        Electrostatic Energy            =   -2.38 kcal/mol
DOCKED: USER    (2) Final Total Internal Energy     =   +0.00 kcal/mol
DOCKED: USER    (3) Torsional Free Energy           =   +0.00 kcal/mol
DOCKED: USER    (4) Unbound System's Energy  [=(2)] =   +0.00 kcal/mol
DOCKED: USER    
DOCKED: USER    
DOCKED: USER    NEWDPF move ../ligands/decavanadate.pdbqt
DOCKED: USER    NEWDPF about 38.166447 -0.097658 117.776763
DOCKED: USER    NEWDPF tran0 -26.714618 -32.383872 -29.804015
DOCKED: USER    NEWDPF quaternion0 -0.569853 0.609263 0.165779 -0.525912
DOCKED: USER    NEWDPF axisangle0 -0.669990 0.716326 0.194911 -116.540681
DOCKED: USER    NEWDPF quat0 -0.669990 0.716326 0.194911 -116.540681
DOCKED: USER  keepresnum = 1 
DOCKED: USER  
DOCKED: USER                              x       y       z     vdW  Elec       q    Type
DOCKED: USER                           _______ _______ _______ _____ _____    ______ ____
DOCKED: ROOT
DOCKED: ATOM      1  O28 DVT A 531     -31.314 -30.617 -29.834 +0.04 -0.08    -0.750 OA
DOCKED: ATOM      2  V10 DVT A 531     -30.023 -31.529 -29.860 +0.05 +0.24    +1.500 Zn
DOCKED: ATOM      3  O18 DVT A 531     -29.806 -32.273 -28.179 +0.01 -0.02    -0.750 OA
DOCKED: ATOM      4  O15 DVT A 531     -30.611 -33.217 -30.306 +0.01 -0.05    -0.750 OA
DOCKED: ATOM      5  V1  DVT A 531     -29.307 -34.497 -30.489 +0.02 +0.07    +1.500 Zn
DOCKED: ATOM      6  O5  DVT A 531     -30.110 -35.862 -30.853 +0.00 +0.01    -0.750 OA
DOCKED: ATOM      7  O27 DVT A 531     -29.500 -31.337 -31.663 -0.02 -0.42    -0.750 OA
DOCKED: ATOM      8  V9  DVT A 531     -28.006 -32.274 -32.175 +0.10 +1.06    +1.500 Zn
DOCKED: ATOM      9  O2  DVT A 531     -27.980 -32.680 -29.978 +0.02 -0.14    -0.750 OA
DOCKED: ATOM     10  O4  DVT A 531     -28.863 -33.857 -32.201 +0.02 -0.14    -0.750 OA
DOCKED: ATOM     11  O8  DVT A 531     -26.268 -33.226 -31.856 +0.02 -0.24    -0.750 OA
DOCKED: ATOM     12  O26 DVT A 531     -27.850 -31.768 -33.690 -0.13 -1.24    -0.750 OA
DOCKED: ATOM     13  O24 DVT A 531     -26.880 -30.778 -31.426 +0.05 -0.85    -0.750 OA
DOCKED: ATOM     14  V7  DVT A 531     -25.088 -31.651 -31.807 +0.12 +0.92    +1.500 Zn
DOCKED: ATOM     15  O11 DVT A 531     -23.672 -32.678 -31.455 +0.02 -0.12    -0.750 OA
DOCKED: ATOM     16  O25 DVT A 531     -25.123 -31.018 -33.281 -0.41 -1.29    -0.750 OA
DOCKED: ATOM     17  O21 DVT A 531     -24.309 -30.205 -30.973 +0.02 -0.33    -0.750 OA
DOCKED: ATOM     18  V6  DVT A 531     -24.086 -30.259 -29.118 +0.04 +0.17    +1.500 Zn
DOCKED: ATOM     19  O19 DVT A 531     -24.644 -30.791 -27.403 +0.01 -0.01    -0.750 OA
DOCKED: ATOM     20  O22 DVT A 531     -23.299 -28.870 -28.970 +0.02 -0.05    -0.750 OA
DOCKED: ATOM     21  O6  DVT A 531     -22.759 -31.542 -29.225 +0.01 -0.02    -0.750 OA
DOCKED: ATOM     22  V8  DVT A 531     -27.086 -30.774 -29.529 +0.05 +0.45    +1.500 Zn
DOCKED: ATOM     23  O20 DVT A 531     -26.027 -29.557 -29.093 +0.03 -0.17    -0.750 OA
DOCKED: ATOM     24  O23 DVT A 531     -28.620 -30.108 -29.539 +0.03 -0.21    -0.750 OA
DOCKED: ATOM     25  O16 DVT A 531     -25.439 -32.066 -29.631 +0.02 -0.13    -0.750 OA
DOCKED: ATOM     26  V5  DVT A 531     -23.392 -33.238 -29.679 +0.01 +0.04    +1.500 Zn
DOCKED: ATOM     27  O14 DVT A 531     -22.092 -34.183 -29.735 +0.00 +0.02    -0.750 OA
DOCKED: ATOM     28  O7  DVT A 531     -24.780 -34.663 -30.088 +0.01 -0.02    -0.750 OA
DOCKED: ATOM     29  V2  DVT A 531     -26.332 -33.985 -30.051 +0.03 +0.12    +1.500 Zn
DOCKED: ATOM     30  O1  DVT A 531     -27.381 -35.240 -30.437 +0.01 -0.02    -0.750 OA
DOCKED: ATOM     31  O17 DVT A 531     -27.217 -31.633 -27.796 +0.01 -0.04    -0.750 OA
DOCKED: ATOM     32  V4  DVT A 531     -25.404 -32.396 -27.444 +0.01 +0.01    +1.500 Zn
DOCKED: ATOM     33  O13 DVT A 531     -23.930 -33.371 -27.864 +0.00 +0.01    -0.750 OA
DOCKED: ATOM     34  O12 DVT A 531     -25.545 -32.837 -25.902 +0.00 +0.03    -0.750 OA
DOCKED: ATOM     35  O9  DVT A 531     -26.473 -33.905 -28.176 +0.01 -0.00    -0.750 OA
DOCKED: ATOM     36  V3  DVT A 531     -28.354 -33.265 -27.879 +0.01 +0.02    +1.500 Zn
DOCKED: ATOM     37  O3  DVT A 531     -29.136 -34.714 -28.642 +0.01 +0.01    -0.750 OA
DOCKED: ATOM     38  O10 DVT A 531     -28.449 -33.723 -26.326 +0.00 +0.03    -0.750 OA
DOCKED: ENDROOT
DOCKED: TORSDOF 0
DOCKED: TER
DOCKED: ENDMDL
________________________________________________________________________________


	BEGINNING GENETIC ALGORITHM DOCKING 27 of 50
Run: 27 Seed: 1769475289 1187354184 [ Run 27 of 50 GA/GALS ]
Beginning LAMARCKIAN GENETIC ALGORITHM (LGA), with a maximum of 2500000 energy evaluations.

Final-Value: -2.113


	FINAL GENETIC ALGORITHM DOCKED STATE
	_______________________________________________


Detailed state:  trans -26.668 -32.867 -29.967 quatxyzw 0.511137 -0.146118 0.784956 -0.318172 center 38.166 -0.098 117.777 ntor 0
State:	-26.668 -32.867 -29.967   0.539 -0.154  0.828 -142.895  

DOCKED: MODEL       27
DOCKED: USER    Run = 27
DOCKED: USER    DPF = blind_docking.dpf
DOCKED: USER  
DOCKED: USER    Estimated Free Energy of Binding    =   -2.11 kcal/mol  [=(1)+(2)+(3)-(4)]
DOCKED: USER    Estimated Inhibition Constant, Ki   =   28.26 mM (millimolar)  [Temperature = 298.15 K]
DOCKED: USER    
DOCKED: USER    (1) Final Intermolecular Energy     =   -2.11 kcal/mol
DOCKED: USER        vdW + Hbond + desolv Energy     =   +0.08 kcal/mol
DOCKED: USER        Electrostatic Energy            =   -2.19 kcal/mol
DOCKED: USER    (2) Final Total Internal Energy     =   +0.00 kcal/mol
DOCKED: USER    (3) Torsional Free Energy           =   +0.00 kcal/mol
DOCKED: USER    (4) Unbound System's Energy  [=(2)] =   +0.00 kcal/mol
DOCKED: USER    
DOCKED: USER    
DOCKED: USER    NEWDPF move ../ligands/decavanadate.pdbqt
DOCKED: USER    NEWDPF about 38.166447 -0.097658 117.776763
DOCKED: USER    NEWDPF tran0 -26.667571 -32.866583 -29.966651
DOCKED: USER    NEWDPF quaternion0 0.511137 -0.146118 0.784956 -0.318172
DOCKED: USER    NEWDPF axisangle0 0.539155 -0.154127 0.827984 -142.895228
DOCKED: USER    NEWDPF quat0 0.539155 -0.154127 0.827984 -142.895228
DOCKED: USER  keepresnum = 1 
DOCKED: USER  
DOCKED: USER                              x       y       z     vdW  Elec       q    Type
DOCKED: USER                           _______ _______ _______ _____ _____    ______ ____
DOCKED: ROOT
DOCKED: ATOM      1  O28 DVT A 531     -29.566 -36.564 -31.450 +0.00 +0.02    -0.750 OA
DOCKED: ATOM      2  V10 DVT A 531     -28.976 -35.180 -30.964 +0.01 +0.04    +1.500 Zn
DOCKED: ATOM      3  O18 DVT A 531     -28.833 -34.064 -32.433 +0.02 -0.13    -0.750 OA
DOCKED: ATOM      4  O15 DVT A 531     -30.434 -34.128 -30.563 +0.01 -0.03    -0.750 OA
DOCKED: ATOM      5  V1  DVT A 531     -30.056 -32.461 -29.891 +0.03 +0.16    +1.500 Zn
DOCKED: ATOM      6  O5  DVT A 531     -31.507 -31.766 -29.660 +0.02 -0.05    -0.750 OA
DOCKED: ATOM      7  O27 DVT A 531     -28.818 -35.503 -29.112 +0.00 +0.01    -0.750 OA
DOCKED: ATOM      8  V9  DVT A 531     -28.174 -34.112 -28.101 +0.01 -0.00    +1.500 Zn
DOCKED: ATOM      9  O2  DVT A 531     -27.906 -33.257 -30.147 +0.02 -0.11    -0.750 OA
DOCKED: ATOM     10  O4  DVT A 531     -29.713 -33.181 -28.188 +0.01 -0.01    -0.750 OA
DOCKED: ATOM     11  O8  DVT A 531     -27.162 -32.404 -27.808 +0.01 -0.03    -0.750 OA
DOCKED: ATOM     12  O26 DVT A 531     -28.097 -34.812 -26.658 +0.00 +0.03    -0.750 OA
DOCKED: ATOM     13  O24 DVT A 531     -26.307 -34.678 -28.614 +0.01 +0.00    -0.750 OA
DOCKED: ATOM     14  V7  DVT A 531     -25.356 -33.169 -27.647 +0.01 -0.00    +1.500 Zn
DOCKED: ATOM     15  O11 DVT A 531     -24.643 -31.542 -27.473 +0.01 -0.01    -0.750 OA
DOCKED: ATOM     16  O25 DVT A 531     -25.362 -34.058 -26.311 +0.00 +0.03    -0.750 OA
DOCKED: ATOM     17  O21 DVT A 531     -23.785 -33.838 -28.339 +0.00 +0.01    -0.750 OA
DOCKED: ATOM     18  V6  DVT A 531     -23.242 -33.265 -30.033 +0.02 +0.05    +1.500 Zn
DOCKED: ATOM     19  O19 DVT A 531     -23.625 -32.689 -31.782 +0.03 -0.13    -0.750 OA
DOCKED: ATOM     20  O22 DVT A 531     -21.838 -34.037 -30.067 +0.00 +0.02    -0.750 OA
DOCKED: ATOM     21  O6  DVT A 531     -22.832 -31.568 -29.427 +0.01 -0.03    -0.750 OA
DOCKED: ATOM     22  V8  DVT A 531     -26.081 -34.348 -30.481 +0.03 +0.11    +1.500 Zn
DOCKED: ATOM     23  O20 DVT A 531     -24.481 -34.780 -30.692 +0.01 -0.02    -0.750 OA
DOCKED: ATOM     24  O23 DVT A 531     -27.008 -35.647 -30.982 +0.01 -0.01    -0.750 OA
DOCKED: ATOM     25  O16 DVT A 531     -25.409 -32.490 -29.784 +0.02 -0.11    -0.750 OA
DOCKED: ATOM     26  V5  DVT A 531     -24.332 -30.531 -29.031 +0.03 +0.17    +1.500 Zn
DOCKED: ATOM     27  O14 DVT A 531     -23.758 -29.121 -28.510 +0.02 -0.04    -0.750 OA
DOCKED: ATOM     28  O7  DVT A 531     -26.308 -30.074 -28.924 +0.02 -0.15    -0.750 OA
DOCKED: ATOM     29  V2  DVT A 531     -27.234 -31.380 -29.477 +0.04 +0.36    +1.500 Zn
DOCKED: ATOM     30  O1  DVT A 531     -28.836 -30.901 -29.307 +0.02 -0.15    -0.750 OA
DOCKED: ATOM     31  O17 DVT A 531     -26.276 -33.289 -32.092 +0.02 -0.25    -0.750 OA
DOCKED: ATOM     32  V4  DVT A 531     -25.097 -31.697 -31.825 +0.12 +0.91    +1.500 Zn
DOCKED: ATOM     33  O13 DVT A 531     -24.470 -30.263 -30.904 +0.02 -0.34    -0.750 OA
DOCKED: ATOM     34  O12 DVT A 531     -25.122 -31.040 -33.295 -0.41 -1.28    -0.750 OA
DOCKED: ATOM     35  O9  DVT A 531     -26.919 -31.090 -31.310 +0.02 -0.69    -0.750 OA
DOCKED: ATOM     36  V3  DVT A 531     -28.083 -32.462 -32.203 +0.10 +0.93    +1.500 Zn
DOCKED: ATOM     37  O3  DVT A 531     -29.643 -31.777 -31.579 +0.02 -0.31    -0.750 OA
DOCKED: ATOM     38  O10 DVT A 531     -28.077 -31.766 -33.668 -0.25 -1.20    -0.750 OA
DOCKED: ENDROOT
DOCKED: TORSDOF 0
DOCKED: TER
DOCKED: ENDMDL
________________________________________________________________________________


	BEGINNING GENETIC ALGORITHM DOCKING 28 of 50
Run: 28 Seed: 350640841 713932114 [ Run 28 of 50 GA/GALS ]
Beginning LAMARCKIAN GENETIC ALGORITHM (LGA), with a maximum of 2500000 energy evaluations.

Final-Value: -2.118


	FINAL GENETIC ALGORITHM DOCKED STATE
	_______________________________________________


Detailed state:  trans -26.228 -33.041 -29.914 quatxyzw -0.568389 0.144367 -0.749101 0.308122 center 38.166 -0.098 117.777 ntor 0
State:	-26.228 -33.041 -29.914  -0.597  0.152 -0.787 144.108  

DOCKED: MODEL       28
DOCKED: USER    Run = 28
DOCKED: USER    DPF = blind_docking.dpf
DOCKED: USER  
DOCKED: USER    Estimated Free Energy of Binding    =   -2.12 kcal/mol  [=(1)+(2)+(3)-(4)]
DOCKED: USER    Estimated Inhibition Constant, Ki   =   28.04 mM (millimolar)  [Temperature = 298.15 K]
DOCKED: USER    
DOCKED: USER    (1) Final Intermolecular Energy     =   -2.12 kcal/mol
DOCKED: USER        vdW + Hbond + desolv Energy     =   -0.01 kcal/mol
DOCKED: USER        Electrostatic Energy            =   -2.11 kcal/mol
DOCKED: USER    (2) Final Total Internal Energy     =   +0.00 kcal/mol
DOCKED: USER    (3) Torsional Free Energy           =   +0.00 kcal/mol
DOCKED: USER    (4) Unbound System's Energy  [=(2)] =   +0.00 kcal/mol
DOCKED: USER    
DOCKED: USER    
DOCKED: USER    NEWDPF move ../ligands/decavanadate.pdbqt
DOCKED: USER    NEWDPF about 38.166447 -0.097658 117.776763
DOCKED: USER    NEWDPF tran0 -26.228405 -33.041319 -29.914372
DOCKED: USER    NEWDPF quaternion0 -0.568389 0.144367 -0.749101 0.308122
DOCKED: USER    NEWDPF axisangle0 -0.597458 0.151751 -0.787411 144.107860
DOCKED: USER    NEWDPF quat0 -0.597458 0.151751 -0.787411 144.107860
DOCKED: USER  keepresnum = 1 
DOCKED: USER  
DOCKED: USER                              x       y       z     vdW  Elec       q    Type
DOCKED: USER                           _______ _______ _______ _____ _____    ______ ____
DOCKED: ROOT
DOCKED: ATOM      1  O28 DVT A 531     -29.260 -36.696 -31.228 +0.00 +0.02    -0.750 OA
DOCKED: ATOM      2  V10 DVT A 531     -28.624 -35.332 -30.743 +0.01 +0.03    +1.500 Zn
DOCKED: ATOM      3  O18 DVT A 531     -28.675 -34.137 -32.155 +0.02 -0.12    -0.750 OA
DOCKED: ATOM      4  O15 DVT A 531     -30.029 -34.324 -30.107 +0.01 -0.02    -0.750 OA
DOCKED: ATOM      5  V1  DVT A 531     -29.585 -32.690 -29.397 +0.02 +0.13    +1.500 Zn
DOCKED: ATOM      6  O5  DVT A 531     -31.001 -32.031 -28.950 +0.01 -0.03    -0.750 OA
DOCKED: ATOM      7  O27 DVT A 531     -28.234 -35.752 -28.946 +0.00 +0.02    -0.750 OA
DOCKED: ATOM      8  V9  DVT A 531     -27.480 -34.407 -27.948 +0.00 -0.02    +1.500 Zn
DOCKED: ATOM      9  O2  DVT A 531     -27.477 -33.439 -29.961 +0.02 -0.09    -0.750 OA
DOCKED: ATOM     10  O4  DVT A 531     -29.025 -33.496 -27.792 +0.01 +0.00    -0.750 OA
DOCKED: ATOM     11  O8  DVT A 531     -26.453 -32.703 -27.689 +0.01 -0.01    -0.750 OA
DOCKED: ATOM     12  O26 DVT A 531     -27.218 -35.182 -26.566 +0.00 +0.04    -0.750 OA
DOCKED: ATOM     13  O24 DVT A 531     -25.687 -34.917 -28.719 +0.01 +0.01    -0.750 OA
DOCKED: ATOM     14  V7  DVT A 531     -24.635 -33.448 -27.795 +0.00 -0.02    +1.500 Zn
DOCKED: ATOM     15  O11 DVT A 531     -23.919 -31.823 -27.622 +0.01 +0.00    -0.750 OA
DOCKED: ATOM     16  O25 DVT A 531     -24.468 -34.407 -26.520 +0.00 +0.04    -0.750 OA
DOCKED: ATOM     17  O21 DVT A 531     -23.158 -34.055 -28.713 +0.00 +0.02    -0.750 OA
DOCKED: ATOM     18  V6  DVT A 531     -22.835 -33.385 -30.428 +0.02 +0.03    +1.500 Zn
DOCKED: ATOM     19  O19 DVT A 531     -23.437 -32.722 -32.081 +0.03 -0.12    -0.750 OA
DOCKED: ATOM     20  O22 DVT A 531     -21.439 -34.133 -30.677 +0.00 +0.03    -0.750 OA
DOCKED: ATOM     21  O6  DVT A 531     -22.366 -31.716 -29.784 +0.01 -0.02    -0.750 OA
DOCKED: ATOM     22  V8  DVT A 531     -25.699 -34.484 -30.578 +0.02 +0.10    +1.500 Zn
DOCKED: ATOM     23  O20 DVT A 531     -24.134 -34.880 -31.009 +0.01 -0.01    -0.750 OA
DOCKED: ATOM     24  O23 DVT A 531     -26.671 -35.768 -31.031 +0.01 -0.01    -0.750 OA
DOCKED: ATOM     25  O16 DVT A 531     -24.960 -32.656 -29.869 +0.02 -0.10    -0.750 OA
DOCKED: ATOM     26  V5  DVT A 531     -23.814 -30.725 -29.148 +0.03 +0.14    +1.500 Zn
DOCKED: ATOM     27  O14 DVT A 531     -23.190 -29.337 -28.626 +0.01 -0.03    -0.750 OA
DOCKED: ATOM     28  O7  DVT A 531     -25.764 -30.303 -28.772 +0.02 -0.12    -0.750 OA
DOCKED: ATOM     29  V2  DVT A 531     -26.742 -31.592 -29.277 +0.04 +0.29    +1.500 Zn
DOCKED: ATOM     30  O1  DVT A 531     -28.313 -31.146 -28.883 +0.02 -0.11    -0.750 OA
DOCKED: ATOM     31  O17 DVT A 531     -26.101 -33.343 -32.092 +0.02 -0.24    -0.750 OA
DOCKED: ATOM     32  V4  DVT A 531     -24.911 -31.750 -31.886 +0.13 +0.84    +1.500 Zn
DOCKED: ATOM     33  O13 DVT A 531     -24.186 -30.359 -30.973 +0.02 -0.30    -0.750 OA
DOCKED: ATOM     34  O12 DVT A 531     -25.125 -31.016 -33.303 -0.40 -1.30    -0.750 OA
DOCKED: ATOM     35  O9  DVT A 531     -26.660 -31.199 -31.116 +0.02 -0.57    -0.750 OA
DOCKED: ATOM     36  V3  DVT A 531     -27.915 -32.539 -31.932 +0.09 +0.81    +1.500 Zn
DOCKED: ATOM     37  O3  DVT A 531     -29.391 -31.911 -31.082 +0.02 -0.26    -0.750 OA
DOCKED: ATOM     38  O10 DVT A 531     -28.097 -31.765 -33.346 -0.29 -1.15    -0.750 OA
DOCKED: ENDROOT
DOCKED: TORSDOF 0
DOCKED: TER
DOCKED: ENDMDL
________________________________________________________________________________


	BEGINNING GENETIC ALGORITHM DOCKING 29 of 50
Run: 29 Seed: 108972906 1317540763 [ Run 29 of 50 GA/GALS ]
Beginning LAMARCKIAN GENETIC ALGORITHM (LGA), with a maximum of 2500000 energy evaluations.

Final-Value: -2.028


	FINAL GENETIC ALGORITHM DOCKED STATE
	_______________________________________________


Detailed state:  trans -26.611 -32.862 -29.479 quatxyzw -0.461699 0.672868 0.238637 -0.526436 center 38.166 -0.098 117.777 ntor 0
State:	-26.611 -32.862 -29.479  -0.543  0.791  0.281 -116.470  

DOCKED: MODEL       29
DOCKED: USER    Run = 29
DOCKED: USER    DPF = blind_docking.dpf
DOCKED: USER  
DOCKED: USER    Estimated Free Energy of Binding    =   -2.03 kcal/mol  [=(1)+(2)+(3)-(4)]
DOCKED: USER    Estimated Inhibition Constant, Ki   =   32.61 mM (millimolar)  [Temperature = 298.15 K]
DOCKED: USER    
DOCKED: USER    (1) Final Intermolecular Energy     =   -2.03 kcal/mol
DOCKED: USER        vdW + Hbond + desolv Energy     =   +0.30 kcal/mol
DOCKED: USER        Electrostatic Energy            =   -2.33 kcal/mol
DOCKED: USER    (2) Final Total Internal Energy     =   +0.00 kcal/mol
DOCKED: USER    (3) Torsional Free Energy           =   +0.00 kcal/mol
DOCKED: USER    (4) Unbound System's Energy  [=(2)] =   +0.00 kcal/mol
DOCKED: USER    
DOCKED: USER    
DOCKED: USER    NEWDPF move ../ligands/decavanadate.pdbqt
DOCKED: USER    NEWDPF about 38.166447 -0.097658 117.776763
DOCKED: USER    NEWDPF tran0 -26.610530 -32.862284 -29.479334
DOCKED: USER    NEWDPF quaternion0 -0.461699 0.672868 0.238637 -0.526436
DOCKED: USER    NEWDPF axisangle0 -0.543038 0.791410 0.280679 -116.470066
DOCKED: USER    NEWDPF quat0 -0.543038 0.791410 0.280679 -116.470066
DOCKED: USER  keepresnum = 1 
DOCKED: USER  
DOCKED: USER                              x       y       z     vdW  Elec       q    Type
DOCKED: USER                           _______ _______ _______ _____ _____    ______ ____
DOCKED: ROOT
DOCKED: ATOM      1  O28 DVT A 531     -30.845 -30.629 -28.315 +0.02 -0.04    -0.750 OA
DOCKED: ATOM      2  V10 DVT A 531     -29.722 -31.655 -28.745 +0.02 +0.12    +1.500 Zn
DOCKED: ATOM      3  O18 DVT A 531     -29.329 -32.727 -27.288 +0.01 +0.00    -0.750 OA
DOCKED: ATOM      4  O15 DVT A 531     -30.614 -33.151 -29.346 +0.01 -0.03    -0.750 OA
DOCKED: ATOM      5  V1  DVT A 531     -29.558 -34.508 -29.991 +0.01 +0.04    +1.500 Zn
DOCKED: ATOM      6  O5  DVT A 531     -30.599 -35.681 -30.416 +0.00 +0.02    -0.750 OA
DOCKED: ATOM      7  O27 DVT A 531     -29.494 -31.180 -30.556 +0.03 -0.25    -0.750 OA
DOCKED: ATOM      8  V9  DVT A 531     -28.261 -32.159 -31.500 +0.09 +0.79    +1.500 Zn
DOCKED: ATOM      9  O2  DVT A 531     -27.916 -32.979 -29.451 +0.02 -0.08    -0.750 OA
DOCKED: ATOM     10  O4  DVT A 531     -29.327 -33.604 -31.625 +0.02 -0.13    -0.750 OA
DOCKED: ATOM     11  O8  DVT A 531     -26.648 -33.338 -31.690 +0.02 -0.22    -0.750 OA
DOCKED: ATOM     12  O26 DVT A 531     -28.296 -31.391 -32.910 -0.21 -1.34    -0.750 OA
DOCKED: ATOM     13  O24 DVT A 531     -26.819 -30.966 -30.744 +0.02 -0.49    -0.750 OA
DOCKED: ATOM     14  V7  DVT A 531     -25.264 -31.941 -31.608 +0.10 +0.77    +1.500 Zn
DOCKED: ATOM     15  O11 DVT A 531     -23.970 -33.166 -31.717 +0.02 -0.11    -0.750 OA
DOCKED: ATOM     16  O25 DVT A 531     -25.460 -31.037 -32.919 -0.11 -1.40    -0.750 OA
DOCKED: ATOM     17  O21 DVT A 531     -24.154 -30.777 -30.711 +0.02 -0.23    -0.750 OA
DOCKED: ATOM     18  V6  DVT A 531     -23.626 -31.210 -28.971 +0.02 +0.09    +1.500 Zn
DOCKED: ATOM     19  O19 DVT A 531     -23.952 -31.997 -27.295 +0.01 +0.01    -0.750 OA
DOCKED: ATOM     20  O22 DVT A 531     -22.635 -29.970 -28.747 +0.01 -0.02    -0.750 OA
DOCKED: ATOM     21  O6  DVT A 531     -22.535 -32.586 -29.549 +0.01 -0.01    -0.750 OA
DOCKED: ATOM     22  V8  DVT A 531     -26.694 -31.305 -28.870 +0.04 +0.24    +1.500 Zn
DOCKED: ATOM     23  O20 DVT A 531     -25.413 -30.318 -28.451 +0.02 -0.08    -0.750 OA
DOCKED: ATOM     24  O23 DVT A 531     -28.096 -30.485 -28.469 +0.02 -0.10    -0.750 OA
DOCKED: ATOM     25  O16 DVT A 531     -25.292 -32.726 -29.507 +0.02 -0.08    -0.750 OA
DOCKED: ATOM     26  V5  DVT A 531     -23.473 -34.083 -30.150 +0.01 +0.02    +1.500 Zn
DOCKED: ATOM     27  O14 DVT A 531     -22.351 -35.137 -30.617 +0.00 +0.03    -0.750 OA
DOCKED: ATOM     28  O7  DVT A 531     -25.100 -35.242 -30.514 +0.01 -0.01    -0.750 OA
DOCKED: ATOM     29  V2  DVT A 531     -26.510 -34.418 -30.061 +0.02 +0.09    +1.500 Zn
DOCKED: ATOM     30  O1  DVT A 531     -27.778 -35.453 -30.442 +0.01 -0.01    -0.750 OA
DOCKED: ATOM     31  O17 DVT A 531     -26.648 -32.460 -27.315 +0.01 -0.01    -0.750 OA
DOCKED: ATOM     32  V4  DVT A 531     -24.930 -33.471 -27.456 +0.00 -0.03    +1.500 Zn
DOCKED: ATOM     33  O13 DVT A 531     -23.705 -34.502 -28.313 +0.00 +0.02    -0.750 OA
DOCKED: ATOM     34  O12 DVT A 531     -24.866 -34.181 -26.013 +0.00 +0.04    -0.750 OA
DOCKED: ATOM     35  O9  DVT A 531     -26.314 -34.685 -28.209 +0.00 +0.01    -0.750 OA
DOCKED: ATOM     36  V3  DVT A 531     -28.004 -33.911 -27.448 +0.00 -0.02    +1.500 Zn
DOCKED: ATOM     37  O3  DVT A 531     -29.106 -35.092 -28.277 +0.00 +0.02    -0.750 OA
DOCKED: ATOM     38  O10 DVT A 531     -27.896 -34.646 -26.006 +0.00 +0.04    -0.750 OA
DOCKED: ENDROOT
DOCKED: TORSDOF 0
DOCKED: TER
DOCKED: ENDMDL
________________________________________________________________________________


	BEGINNING GENETIC ALGORITHM DOCKING 30 of 50
Run: 30 Seed: 448791676 1467087715 [ Run 30 of 50 GA/GALS ]
Beginning LAMARCKIAN GENETIC ALGORITHM (LGA), with a maximum of 2500000 energy evaluations.

Final-Value: -2.057


	FINAL GENETIC ALGORITHM DOCKED STATE
	_______________________________________________


Detailed state:  trans -25.870 -33.709 -30.346 quatxyzw -0.664311 0.236400 -0.643363 0.298144 center 38.166 -0.098 117.777 ntor 0
State:	-25.870 -33.709 -30.346  -0.696  0.248 -0.674 145.308  

DOCKED: MODEL       30
DOCKED: USER    Run = 30
DOCKED: USER    DPF = blind_docking.dpf
DOCKED: USER  
DOCKED: USER    Estimated Free Energy of Binding    =   -2.06 kcal/mol  [=(1)+(2)+(3)-(4)]
DOCKED: USER    Estimated Inhibition Constant, Ki   =   31.07 mM (millimolar)  [Temperature = 298.15 K]
DOCKED: USER    
DOCKED: USER    (1) Final Intermolecular Energy     =   -2.06 kcal/mol
DOCKED: USER        vdW + Hbond + desolv Energy     =   +0.16 kcal/mol
DOCKED: USER        Electrostatic Energy            =   -2.21 kcal/mol
DOCKED: USER    (2) Final Total Internal Energy     =   +0.00 kcal/mol
DOCKED: USER    (3) Torsional Free Energy           =   +0.00 kcal/mol
DOCKED: USER    (4) Unbound System's Energy  [=(2)] =   +0.00 kcal/mol
DOCKED: USER    
DOCKED: USER    
DOCKED: USER    NEWDPF move ../ligands/decavanadate.pdbqt
DOCKED: USER    NEWDPF about 38.166447 -0.097658 117.776763
DOCKED: USER    NEWDPF tran0 -25.870347 -33.708518 -30.345521
DOCKED: USER    NEWDPF quaternion0 -0.664311 0.236400 -0.643363 0.298144
DOCKED: USER    NEWDPF axisangle0 -0.695963 0.247664 -0.674017 145.307665
DOCKED: USER    NEWDPF quat0 -0.695963 0.247664 -0.674017 145.307665
DOCKED: USER  keepresnum = 1 
DOCKED: USER  
DOCKED: USER                              x       y       z     vdW  Elec       q    Type
DOCKED: USER                           _______ _______ _______ _____ _____    ______ ____
DOCKED: ROOT
DOCKED: ATOM      1  O28 DVT A 531     -29.606 -36.598 -31.750 +0.00 +0.02    -0.750 OA
DOCKED: ATOM      2  V10 DVT A 531     -28.694 -35.468 -31.124 +0.01 +0.03    +1.500 Zn
DOCKED: ATOM      3  O18 DVT A 531     -28.827 -33.960 -32.190 +0.02 -0.13    -0.750 OA
DOCKED: ATOM      4  O15 DVT A 531     -29.789 -34.513 -29.991 +0.01 -0.02    -0.750 OA
DOCKED: ATOM      5  V1  DVT A 531     -28.980 -33.160 -29.049 +0.02 +0.09    +1.500 Zn
DOCKED: ATOM      6  O5  DVT A 531     -30.173 -32.493 -28.170 +0.01 -0.02    -0.750 OA
DOCKED: ATOM      7  O27 DVT A 531     -28.044 -36.358 -29.593 +0.00 +0.02    -0.750 OA
DOCKED: ATOM      8  V9  DVT A 531     -26.924 -35.387 -28.509 +0.00 -0.03    +1.500 Zn
DOCKED: ATOM      9  O2  DVT A 531     -27.151 -33.955 -30.208 +0.02 -0.07    -0.750 OA
DOCKED: ATOM     10  O4  DVT A 531     -28.259 -34.391 -27.823 +0.00 +0.01    -0.750 OA
DOCKED: ATOM     11  O8  DVT A 531     -25.624 -33.912 -28.106 +0.01 +0.00    -0.750 OA
DOCKED: ATOM     12  O26 DVT A 531     -26.528 -36.502 -27.425 +0.00 +0.04    -0.750 OA
DOCKED: ATOM     13  O24 DVT A 531     -25.403 -35.867 -29.744 +0.00 +0.01    -0.750 OA
DOCKED: ATOM     14  V7  DVT A 531     -23.990 -34.788 -28.767 +0.00 -0.04    +1.500 Zn
DOCKED: ATOM     15  O11 DVT A 531     -23.019 -33.337 -28.396 +0.00 +0.02    -0.750 OA
DOCKED: ATOM     16  O25 DVT A 531     -23.733 -36.045 -27.804 +0.00 +0.04    -0.750 OA
DOCKED: ATOM     17  O21 DVT A 531     -22.817 -35.294 -30.094 +0.00 +0.03    -0.750 OA
DOCKED: ATOM     18  V6  DVT A 531     -22.722 -34.254 -31.645 +0.02 +0.01    +1.500 Zn
DOCKED: ATOM     19  O19 DVT A 531     -23.515 -33.144 -32.938 +0.04 -0.11    -0.750 OA
DOCKED: ATOM     20  O22 DVT A 531     -21.525 -35.054 -32.350 +0.00 +0.03    -0.750 OA
DOCKED: ATOM     21  O6  DVT A 531     -21.897 -32.854 -30.763 +0.01 -0.00    -0.750 OA
DOCKED: ATOM     22  V8  DVT A 531     -25.696 -34.987 -31.412 +0.03 +0.09    +1.500 Zn
DOCKED: ATOM     23  O20 DVT A 531     -24.316 -35.419 -32.249 +0.01 -0.01    -0.750 OA
DOCKED: ATOM     24  O23 DVT A 531     -26.916 -36.014 -31.918 +0.01 -0.01    -0.750 OA
DOCKED: ATOM     25  O16 DVT A 531     -24.573 -33.477 -30.491 +0.02 -0.07    -0.750 OA
DOCKED: ATOM     26  V5  DVT A 531     -23.036 -31.911 -29.625 +0.02 +0.07    +1.500 Zn
DOCKED: ATOM     27  O14 DVT A 531     -22.126 -30.766 -28.955 +0.01 -0.00    -0.750 OA
DOCKED: ATOM     28  O7  DVT A 531     -24.797 -31.401 -28.751 +0.02 -0.07    -0.750 OA
DOCKED: ATOM     29  V2  DVT A 531     -26.033 -32.419 -29.306 +0.03 +0.19    +1.500 Zn
DOCKED: ATOM     30  O1  DVT A 531     -27.419 -31.929 -28.492 +0.01 -0.07    -0.750 OA
DOCKED: ATOM     31  O17 DVT A 531     -26.197 -33.471 -32.510 +0.02 -0.25    -0.750 OA
DOCKED: ATOM     32  V4  DVT A 531     -24.765 -32.108 -32.218 +0.13 +0.74    +1.500 Zn
DOCKED: ATOM     33  O13 DVT A 531     -23.682 -31.067 -31.197 +0.03 -0.21    -0.750 OA
DOCKED: ATOM     34  O12 DVT A 531     -25.127 -31.027 -33.355 -0.39 -1.31    -0.750 OA
DOCKED: ATOM     35  O9  DVT A 531     -26.237 -31.592 -30.985 +0.01 -0.42    -0.750 OA
DOCKED: ATOM     36  V3  DVT A 531     -27.808 -32.553 -31.786 +0.09 +0.77    +1.500 Zn
DOCKED: ATOM     37  O3  DVT A 531     -28.989 -32.010 -30.519 +0.02 -0.21    -0.750 OA
DOCKED: ATOM     38  O10 DVT A 531     -28.133 -31.438 -32.919 -0.10 -1.39    -0.750 OA
DOCKED: ENDROOT
DOCKED: TORSDOF 0
DOCKED: TER
DOCKED: ENDMDL
________________________________________________________________________________


	BEGINNING GENETIC ALGORITHM DOCKING 31 of 50
Run: 31 Seed: 1895354547 265733531 [ Run 31 of 50 GA/GALS ]
Beginning LAMARCKIAN GENETIC ALGORITHM (LGA), with a maximum of 2500000 energy evaluations.

Final-Value: -2.020


	FINAL GENETIC ALGORITHM DOCKED STATE
	_______________________________________________


Detailed state:  trans -26.745 -32.387 -29.476 quatxyzw 0.463084 -0.733658 -0.155523 0.472347 center 38.166 -0.098 117.777 ntor 0
State:	-26.745 -32.387 -29.476   0.525 -0.832 -0.176 123.626  

DOCKED: MODEL       31
DOCKED: USER    Run = 31
DOCKED: USER    DPF = blind_docking.dpf
DOCKED: USER  
DOCKED: USER    Estimated Free Energy of Binding    =   -2.02 kcal/mol  [=(1)+(2)+(3)-(4)]
DOCKED: USER    Estimated Inhibition Constant, Ki   =   33.06 mM (millimolar)  [Temperature = 298.15 K]
DOCKED: USER    
DOCKED: USER    (1) Final Intermolecular Energy     =   -2.02 kcal/mol
DOCKED: USER        vdW + Hbond + desolv Energy     =   +0.27 kcal/mol
DOCKED: USER        Electrostatic Energy            =   -2.29 kcal/mol
DOCKED: USER    (2) Final Total Internal Energy     =   +0.00 kcal/mol
DOCKED: USER    (3) Torsional Free Energy           =   +0.00 kcal/mol
DOCKED: USER    (4) Unbound System's Energy  [=(2)] =   +0.00 kcal/mol
DOCKED: USER    
DOCKED: USER    
DOCKED: USER    NEWDPF move ../ligands/decavanadate.pdbqt
DOCKED: USER    NEWDPF about 38.166447 -0.097658 117.776763
DOCKED: USER    NEWDPF tran0 -26.745396 -32.387118 -29.476337
DOCKED: USER    NEWDPF quaternion0 0.463084 -0.733658 -0.155523 0.472347
DOCKED: USER    NEWDPF axisangle0 0.525389 -0.832366 -0.176447 123.626485
DOCKED: USER    NEWDPF quat0 0.525389 -0.832366 -0.176447 123.626485
DOCKED: USER  keepresnum = 1 
DOCKED: USER  
DOCKED: USER                              x       y       z     vdW  Elec       q    Type
DOCKED: USER                           _______ _______ _______ _____ _____    ______ ____
DOCKED: ROOT
DOCKED: ATOM      1  O28 DVT A 531     -30.618 -29.480 -28.567 +0.03 -0.05    -0.750 OA
DOCKED: ATOM      2  V10 DVT A 531     -29.647 -30.697 -28.843 +0.04 +0.17    +1.500 Zn
DOCKED: ATOM      3  O18 DVT A 531     -29.272 -31.516 -27.226 +0.01 -0.01    -0.750 OA
DOCKED: ATOM      4  O15 DVT A 531     -30.737 -32.160 -29.098 +0.01 -0.04    -0.750 OA
DOCKED: ATOM      5  V1  DVT A 531     -29.884 -33.731 -29.517 +0.01 +0.06    +1.500 Zn
DOCKED: ATOM      6  O5  DVT A 531     -31.074 -34.828 -29.656 +0.00 +0.01    -0.750 OA
DOCKED: ATOM      7  O27 DVT A 531     -29.496 -30.600 -30.721 +0.03 -0.31    -0.750 OA
DOCKED: ATOM      8  V9  DVT A 531     -28.446 -31.881 -31.514 +0.10 +0.90    +1.500 Zn
DOCKED: ATOM      9  O2  DVT A 531     -28.050 -32.338 -29.364 +0.02 -0.11    -0.750 OA
DOCKED: ATOM     10  O4  DVT A 531     -29.671 -33.184 -31.304 +0.02 -0.13    -0.750 OA
DOCKED: ATOM     11  O8  DVT A 531     -26.990 -33.261 -31.548 +0.02 -0.23    -0.750 OA
DOCKED: ATOM     12  O26 DVT A 531     -28.496 -31.393 -33.043 -0.31 -1.30    -0.750 OA
DOCKED: ATOM     13  O24 DVT A 531     -26.834 -30.751 -31.074 +0.03 -0.67    -0.750 OA
DOCKED: ATOM     14  V7  DVT A 531     -25.459 -32.051 -31.806 +0.11 +0.85    +1.500 Zn
DOCKED: ATOM     15  O11 DVT A 531     -24.318 -33.422 -31.736 +0.02 -0.11    -0.750 OA
DOCKED: ATOM     16  O25 DVT A 531     -25.646 -31.392 -33.257 -0.14 -1.26    -0.750 OA
DOCKED: ATOM     17  O21 DVT A 531     -24.168 -30.882 -31.206 +0.02 -0.30    -0.750 OA
DOCKED: ATOM     18  V6  DVT A 531     -23.570 -31.042 -29.443 +0.03 +0.14    +1.500 Zn
DOCKED: ATOM     19  O19 DVT A 531     -23.862 -31.456 -27.632 +0.01 -0.00    -0.750 OA
DOCKED: ATOM     20  O22 DVT A 531     -22.435 -29.911 -29.511 +0.02 -0.03    -0.750 OA
DOCKED: ATOM     21  O6  DVT A 531     -22.679 -32.624 -29.793 +0.01 -0.02    -0.750 OA
DOCKED: ATOM     22  V8  DVT A 531     -26.615 -30.745 -29.178 +0.04 +0.34    +1.500 Zn
DOCKED: ATOM     23  O20 DVT A 531     -25.208 -29.858 -29.020 +0.03 -0.13    -0.750 OA
DOCKED: ATOM     24  O23 DVT A 531     -27.887 -29.700 -28.878 +0.03 -0.15    -0.750 OA
DOCKED: ATOM     25  O16 DVT A 531     -25.425 -32.418 -29.593 +0.02 -0.10    -0.750 OA
DOCKED: ATOM     26  V5  DVT A 531     -23.815 -34.082 -30.046 +0.01 +0.03    +1.500 Zn
DOCKED: ATOM     27  O14 DVT A 531     -22.850 -35.333 -30.352 +0.00 +0.02    -0.750 OA
DOCKED: ATOM     28  O7  DVT A 531     -25.581 -35.084 -30.100 +0.01 -0.01    -0.750 OA
DOCKED: ATOM     29  V2  DVT A 531     -26.857 -34.025 -29.749 +0.02 +0.10    +1.500 Zn
DOCKED: ATOM     30  O1  DVT A 531     -28.254 -34.952 -29.860 +0.01 -0.02    -0.750 OA
DOCKED: ATOM     31  O17 DVT A 531     -26.587 -31.585 -27.432 +0.01 -0.02    -0.750 OA
DOCKED: ATOM     32  V4  DVT A 531     -25.004 -32.805 -27.456 +0.01 -0.01    +1.500 Zn
DOCKED: ATOM     33  O13 DVT A 531     -23.963 -34.118 -28.154 +0.00 +0.02    -0.750 OA
DOCKED: ATOM     34  O12 DVT A 531     -24.917 -33.234 -25.907 +0.00 +0.04    -0.750 OA
DOCKED: ATOM     35  O9  DVT A 531     -26.562 -33.961 -27.891 +0.01 +0.00    -0.750 OA
DOCKED: ATOM     36  V3  DVT A 531     -28.099 -32.860 -27.216 +0.01 -0.00    +1.500 Zn
DOCKED: ATOM     37  O3  DVT A 531     -29.379 -34.033 -27.745 +0.00 +0.01    -0.750 OA
DOCKED: ATOM     38  O10 DVT A 531     -27.972 -33.319 -25.665 +0.00 +0.03    -0.750 OA
DOCKED: ENDROOT
DOCKED: TORSDOF 0
DOCKED: TER
DOCKED: ENDMDL
________________________________________________________________________________


	BEGINNING GENETIC ALGORITHM DOCKING 32 of 50
Run: 32 Seed: 235313755 909927522 [ Run 32 of 50 GA/GALS ]
Beginning LAMARCKIAN GENETIC ALGORITHM (LGA), with a maximum of 2500000 energy evaluations.

Final-Value: -2.067


	FINAL GENETIC ALGORITHM DOCKED STATE
	_______________________________________________


Detailed state:  trans -26.758 -33.441 -29.852 quatxyzw 0.590938 -0.237679 0.706656 -0.308121 center 38.166 -0.098 117.777 ntor 0
State:	-26.758 -33.441 -29.852   0.621 -0.250  0.743 -144.108  

DOCKED: MODEL       32
DOCKED: USER    Run = 32
DOCKED: USER    DPF = blind_docking.dpf
DOCKED: USER  
DOCKED: USER    Estimated Free Energy of Binding    =   -2.07 kcal/mol  [=(1)+(2)+(3)-(4)]
DOCKED: USER    Estimated Inhibition Constant, Ki   =   30.54 mM (millimolar)  [Temperature = 298.15 K]
DOCKED: USER    
DOCKED: USER    (1) Final Intermolecular Energy     =   -2.07 kcal/mol
DOCKED: USER        vdW + Hbond + desolv Energy     =   +0.13 kcal/mol
DOCKED: USER        Electrostatic Energy            =   -2.19 kcal/mol
DOCKED: USER    (2) Final Total Internal Energy     =   +0.00 kcal/mol
DOCKED: USER    (3) Torsional Free Energy           =   +0.00 kcal/mol
DOCKED: USER    (4) Unbound System's Energy  [=(2)] =   +0.00 kcal/mol
DOCKED: USER    
DOCKED: USER    
DOCKED: USER    NEWDPF move ../ligands/decavanadate.pdbqt
DOCKED: USER    NEWDPF about 38.166447 -0.097658 117.776763
DOCKED: USER    NEWDPF tran0 -26.758496 -33.441114 -29.851538
DOCKED: USER    NEWDPF quaternion0 0.590938 -0.237679 0.706656 -0.308121
DOCKED: USER    NEWDPF axisangle0 0.621159 -0.249834 0.742795 -144.107890
DOCKED: USER    NEWDPF quat0 0.621159 -0.249834 0.742795 -144.107890
DOCKED: USER  keepresnum = 1 
DOCKED: USER  
DOCKED: USER                              x       y       z     vdW  Elec       q    Type
DOCKED: USER                           _______ _______ _______ _____ _____    ______ ____
DOCKED: ROOT
DOCKED: ATOM      1  O28 DVT A 531     -30.248 -36.425 -31.638 +0.00 +0.02    -0.750 OA
DOCKED: ATOM      2  V10 DVT A 531     -29.437 -35.250 -30.960 +0.01 +0.03    +1.500 Zn
DOCKED: ATOM      3  O18 DVT A 531     -29.356 -33.839 -32.155 +0.02 -0.12    -0.750 OA
DOCKED: ATOM      4  O15 DVT A 531     -30.694 -34.197 -30.119 +0.01 -0.01    -0.750 OA
DOCKED: ATOM      5  V1  DVT A 531     -30.035 -32.771 -29.167 +0.02 +0.08    +1.500 Zn
DOCKED: ATOM      6  O5  DVT A 531     -31.350 -32.026 -28.569 +0.01 -0.02    -0.750 OA
DOCKED: ATOM      7  O27 DVT A 531     -29.079 -36.007 -29.270 +0.00 +0.02    -0.750 OA
DOCKED: ATOM      8  V9  DVT A 531     -28.146 -34.951 -28.092 +0.00 -0.03    +1.500 Zn
DOCKED: ATOM      9  O2  DVT A 531     -28.048 -33.669 -29.919 +0.01 -0.07    -0.750 OA
DOCKED: ATOM     10  O4  DVT A 531     -29.560 -33.895 -27.736 +0.00 +0.01    -0.750 OA
DOCKED: ATOM     11  O8  DVT A 531     -26.908 -33.453 -27.594 +0.01 +0.00    -0.750 OA
DOCKED: ATOM     12  O26 DVT A 531     -27.965 -35.971 -26.866 +0.00 +0.04    -0.750 OA
DOCKED: ATOM     13  O24 DVT A 531     -26.443 -35.541 -28.999 +0.00 +0.01    -0.750 OA
DOCKED: ATOM     14  V7  DVT A 531     -25.200 -34.388 -27.884 +0.00 -0.03    +1.500 Zn
DOCKED: ATOM     15  O11 DVT A 531     -24.281 -32.915 -27.473 +0.01 +0.01    -0.750 OA
DOCKED: ATOM     16  O25 DVT A 531     -25.138 -35.559 -26.789 +0.00 +0.04    -0.750 OA
DOCKED: ATOM     17  O21 DVT A 531     -23.825 -35.011 -28.940 +0.00 +0.02    -0.750 OA
DOCKED: ATOM     18  V6  DVT A 531     -23.444 -34.109 -30.532 +0.02 +0.03    +1.500 Zn
DOCKED: ATOM     19  O19 DVT A 531     -23.980 -33.111 -32.033 +0.03 -0.13    -0.750 OA
DOCKED: ATOM     20  O22 DVT A 531     -22.158 -34.971 -30.949 +0.00 +0.03    -0.750 OA
DOCKED: ATOM     21  O6  DVT A 531     -22.758 -32.642 -29.641 +0.01 -0.01    -0.750 OA
DOCKED: ATOM     22  V8  DVT A 531     -26.426 -34.808 -30.760 +0.02 +0.09    +1.500 Zn
DOCKED: ATOM     23  O20 DVT A 531     -24.930 -35.315 -31.305 +0.01 -0.02    -0.750 OA
DOCKED: ATOM     24  O23 DVT A 531     -27.559 -35.869 -31.383 +0.01 -0.01    -0.750 OA
DOCKED: ATOM     25  O16 DVT A 531     -25.451 -33.228 -29.788 +0.02 -0.08    -0.750 OA
DOCKED: ATOM     26  V5  DVT A 531     -24.059 -31.600 -28.802 +0.02 +0.09    +1.500 Zn
DOCKED: ATOM     27  O14 DVT A 531     -23.256 -30.405 -28.082 +0.01 -0.01    -0.750 OA
DOCKED: ATOM     28  O7  DVT A 531     -25.934 -31.010 -28.294 +0.02 -0.07    -0.750 OA
DOCKED: ATOM     29  V2  DVT A 531     -27.074 -32.066 -28.969 +0.03 +0.20    +1.500 Zn
DOCKED: ATOM     30  O1  DVT A 531     -28.571 -31.503 -28.452 +0.01 -0.07    -0.750 OA
DOCKED: ATOM     31  O17 DVT A 531     -26.701 -33.389 -32.052 +0.02 -0.24    -0.750 OA
DOCKED: ATOM     32  V4  DVT A 531     -25.316 -32.012 -31.630 +0.10 +0.76    +1.500 Zn
DOCKED: ATOM     33  O13 DVT A 531     -24.407 -30.891 -30.528 +0.02 -0.23    -0.750 OA
DOCKED: ATOM     34  O12 DVT A 531     -25.454 -31.031 -32.900 -0.11 -1.39    -0.750 OA
DOCKED: ATOM     35  O9  DVT A 531     -26.969 -31.386 -30.720 +0.02 -0.41    -0.750 OA
DOCKED: ATOM     36  V3  DVT A 531     -28.395 -32.406 -31.700 +0.09 +0.73    +1.500 Zn
DOCKED: ATOM     37  O3  DVT A 531     -29.768 -31.752 -30.708 +0.03 -0.20    -0.750 OA
DOCKED: ATOM     38  O10 DVT A 531     -28.498 -31.391 -32.961 -0.35 -1.26    -0.750 OA
DOCKED: ENDROOT
DOCKED: TORSDOF 0
DOCKED: TER
DOCKED: ENDMDL
________________________________________________________________________________


	BEGINNING GENETIC ALGORITHM DOCKING 33 of 50
Run: 33 Seed: 1979115395 715755519 [ Run 33 of 50 GA/GALS ]
Beginning LAMARCKIAN GENETIC ALGORITHM (LGA), with a maximum of 2500000 energy evaluations.

Final-Value: -1.855


	FINAL GENETIC ALGORITHM DOCKED STATE
	_______________________________________________


Detailed state:  trans 2.205 -10.939 -54.136 quatxyzw 0.477489 0.125447 -0.866013 0.079296 center 38.166 -0.098 117.777 ntor 0
State:	  2.205 -10.939 -54.136   0.479  0.126 -0.869 170.904  

DOCKED: MODEL       33
DOCKED: USER    Run = 33
DOCKED: USER    DPF = blind_docking.dpf
DOCKED: USER  
DOCKED: USER    Estimated Free Energy of Binding    =   -1.86 kcal/mol  [=(1)+(2)+(3)-(4)]
DOCKED: USER    Estimated Inhibition Constant, Ki   =   43.66 mM (millimolar)  [Temperature = 298.15 K]
DOCKED: USER    
DOCKED: USER    (1) Final Intermolecular Energy     =   -1.86 kcal/mol
DOCKED: USER        vdW + Hbond + desolv Energy     =   -0.43 kcal/mol
DOCKED: USER        Electrostatic Energy            =   -1.42 kcal/mol
DOCKED: USER    (2) Final Total Internal Energy     =   +0.00 kcal/mol
DOCKED: USER    (3) Torsional Free Energy           =   +0.00 kcal/mol
DOCKED: USER    (4) Unbound System's Energy  [=(2)] =   +0.00 kcal/mol
DOCKED: USER    
DOCKED: USER    
DOCKED: USER    NEWDPF move ../ligands/decavanadate.pdbqt
DOCKED: USER    NEWDPF about 38.166447 -0.097658 117.776763
DOCKED: USER    NEWDPF tran0 2.204519 -10.939244 -54.135833
DOCKED: USER    NEWDPF quaternion0 0.477489 0.125447 -0.866013 0.079296
DOCKED: USER    NEWDPF axisangle0 0.478998 0.125843 -0.868749 170.903832
DOCKED: USER    NEWDPF quat0 0.478998 0.125843 -0.868749 170.903832
DOCKED: USER  keepresnum = 1 
DOCKED: USER  
DOCKED: USER                              x       y       z     vdW  Elec       q    Type
DOCKED: USER                           _______ _______ _______ _____ _____    ______ ____
DOCKED: ROOT
DOCKED: ATOM      1  O28 DVT A 531       3.646 -15.647 -54.323 +0.02 +0.01    -0.750 OA
DOCKED: ATOM      2  V10 DVT A 531       3.384 -14.112 -54.600 +0.04 +0.05    +1.500 Zn
DOCKED: ATOM      3  O18 DVT A 531       4.895 -13.168 -54.099 +0.01 +0.02    -0.750 OA
DOCKED: ATOM      4  O15 DVT A 531       4.004 -13.799 -56.307 +0.01 +0.02    -0.750 OA
DOCKED: ATOM      5  V1  DVT A 531       3.764 -12.094 -56.945 +0.01 -0.05    +1.500 Zn
DOCKED: ATOM      6  O5  DVT A 531       4.418 -12.109 -58.432 +0.00 +0.05    -0.750 OA
DOCKED: ATOM      7  O27 DVT A 531       1.652 -14.186 -55.344 +0.02 -0.12    -0.750 OA
DOCKED: ATOM      8  V9  DVT A 531       0.925 -12.581 -55.859 +0.08 +0.38    +1.500 Zn
DOCKED: ATOM      9  O2  DVT A 531       2.790 -11.857 -54.866 +0.02 -0.05    -0.750 OA
DOCKED: ATOM     10  O4  DVT A 531       1.957 -12.450 -57.328 +0.01 -0.02    -0.750 OA
DOCKED: ATOM     11  O8  DVT A 531       0.735 -10.583 -55.819 +0.02 -0.12    -0.750 OA
DOCKED: ATOM     12  O26 DVT A 531      -0.538 -13.057 -56.319 -0.05 -0.33    -0.750 OA
DOCKED: ATOM     13  O24 DVT A 531       0.363 -12.285 -53.944 -0.39 -0.62    -0.750 OA
DOCKED: ATOM     14  V7  DVT A 531      -0.429 -10.441 -54.238 +0.11 +0.80    +1.500 Zn
DOCKED: ATOM     15  O11 DVT A 531      -0.409  -8.659 -54.339 +0.02 -0.10    -0.750 OA
DOCKED: ATOM     16  O25 DVT A 531      -1.820 -11.132 -54.642 -0.27 -0.72    -0.750 OA
DOCKED: ATOM     17  O21 DVT A 531      -0.738 -10.384 -52.423 -0.54 -0.80    -0.750 OA
DOCKED: ATOM     18  V6  DVT A 531       0.624  -9.761 -51.306 +0.11 +0.44    +1.500 Zn
DOCKED: ATOM     19  O19 DVT A 531       2.444  -9.555 -50.878 +0.02 -0.04    -0.750 OA
DOCKED: ATOM     20  O22 DVT A 531      -0.200  -9.819 -49.932 +0.03 -0.24    -0.750 OA
DOCKED: ATOM     21  O6  DVT A 531       0.433  -8.019 -51.895 +0.03 -0.06    -0.750 OA
DOCKED: ATOM     22  V8  DVT A 531       1.940 -12.034 -52.897 +0.08 +0.38    +1.500 Zn
DOCKED: ATOM     23  O20 DVT A 531       1.280 -11.716 -51.395 -0.01 -0.28    -0.750 OA
DOCKED: ATOM     24  O23 DVT A 531       2.389 -13.646 -52.902 +0.02 -0.12    -0.750 OA
DOCKED: ATOM     25  O16 DVT A 531       1.604 -10.025 -53.387 +0.02 -0.12    -0.750 OA
DOCKED: ATOM     26  V5  DVT A 531       1.071  -7.739 -53.626 +0.03 +0.03    +1.500 Zn
DOCKED: ATOM     27  O14 DVT A 531       0.795  -6.186 -53.943 +0.01 +0.04    -0.750 OA
DOCKED: ATOM     28  O7  DVT A 531       1.993  -8.212 -55.373 +0.01 +0.01    -0.750 OA
DOCKED: ATOM     29  V2  DVT A 531       2.483  -9.833 -55.348 +0.03 +0.03    +1.500 Zn
DOCKED: ATOM     30  O1  DVT A 531       3.191 -10.113 -56.846 +0.01 +0.02    -0.750 OA
DOCKED: ATOM     31  O17 DVT A 531       3.703 -11.303 -52.564 +0.02 -0.02    -0.750 OA
DOCKED: ATOM     32  V4  DVT A 531       3.428  -9.336 -52.341 +0.02 -0.00    +1.500 Zn
DOCKED: ATOM     33  O13 DVT A 531       2.796  -7.707 -52.836 +0.01 +0.02    -0.750 OA
DOCKED: ATOM     34  O12 DVT A 531       4.877  -8.876 -51.812 +0.00 +0.04    -0.750 OA
DOCKED: ATOM     35  O9  DVT A 531       3.979  -9.575 -54.236 +0.01 +0.02    -0.750 OA
DOCKED: ATOM     36  V3  DVT A 531       4.843 -11.387 -54.193 +0.01 -0.05    +1.500 Zn
DOCKED: ATOM     37  O3  DVT A 531       5.211 -11.430 -55.970 +0.00 +0.04    -0.750 OA
DOCKED: ATOM     38  O10 DVT A 531       6.287 -10.878 -53.655 +0.00 +0.05    -0.750 OA
DOCKED: ENDROOT
DOCKED: TORSDOF 0
DOCKED: TER
DOCKED: ENDMDL
________________________________________________________________________________


	BEGINNING GENETIC ALGORITHM DOCKING 34 of 50
Run: 34 Seed: 171641648 744088662 [ Run 34 of 50 GA/GALS ]
Beginning LAMARCKIAN GENETIC ALGORITHM (LGA), with a maximum of 2500000 energy evaluations.

Final-Value: -1.852


	FINAL GENETIC ALGORITHM DOCKED STATE
	_______________________________________________


Detailed state:  trans 2.126 -10.896 -54.269 quatxyzw 0.456792 0.129095 -0.876476 0.080412 center 38.166 -0.098 117.777 ntor 0
State:	  2.126 -10.896 -54.269   0.458  0.130 -0.879 170.776  

DOCKED: MODEL       34
DOCKED: USER    Run = 34
DOCKED: USER    DPF = blind_docking.dpf
DOCKED: USER  
DOCKED: USER    Estimated Free Energy of Binding    =   -1.85 kcal/mol  [=(1)+(2)+(3)-(4)]
DOCKED: USER    Estimated Inhibition Constant, Ki   =   43.92 mM (millimolar)  [Temperature = 298.15 K]
DOCKED: USER    
DOCKED: USER    (1) Final Intermolecular Energy     =   -1.85 kcal/mol
DOCKED: USER        vdW + Hbond + desolv Energy     =   -0.40 kcal/mol
DOCKED: USER        Electrostatic Energy            =   -1.45 kcal/mol
DOCKED: USER    (2) Final Total Internal Energy     =   +0.00 kcal/mol
DOCKED: USER    (3) Torsional Free Energy           =   +0.00 kcal/mol
DOCKED: USER    (4) Unbound System's Energy  [=(2)] =   +0.00 kcal/mol
DOCKED: USER    
DOCKED: USER    
DOCKED: USER    NEWDPF move ../ligands/decavanadate.pdbqt
DOCKED: USER    NEWDPF about 38.166447 -0.097658 117.776763
DOCKED: USER    NEWDPF tran0 2.125647 -10.895618 -54.268575
DOCKED: USER    NEWDPF quaternion0 0.456792 0.129095 -0.876476 0.080412
DOCKED: USER    NEWDPF axisangle0 0.458276 0.129515 -0.879323 170.775555
DOCKED: USER    NEWDPF quat0 0.458276 0.129515 -0.879323 170.775555
DOCKED: USER  keepresnum = 1 
DOCKED: USER  
DOCKED: USER                              x       y       z     vdW  Elec       q    Type
DOCKED: USER                           _______ _______ _______ _____ _____    ______ ____
DOCKED: ROOT
DOCKED: ATOM      1  O28 DVT A 531       3.596 -15.589 -54.560 +0.02 +0.01    -0.750 OA
DOCKED: ATOM      2  V10 DVT A 531       3.309 -14.055 -54.812 +0.04 +0.05    +1.500 Zn
DOCKED: ATOM      3  O18 DVT A 531       4.834 -13.101 -54.373 +0.01 +0.02    -0.750 OA
DOCKED: ATOM      4  O15 DVT A 531       3.848 -13.723 -56.543 +0.01 +0.02    -0.750 OA
DOCKED: ATOM      5  V1  DVT A 531       3.565 -12.015 -57.155 +0.01 -0.05    +1.500 Zn
DOCKED: ATOM      6  O5  DVT A 531       4.150 -12.013 -58.671 +0.00 +0.05    -0.750 OA
DOCKED: ATOM      7  O27 DVT A 531       1.546 -14.138 -55.477 +0.02 -0.13    -0.750 OA
DOCKED: ATOM      8  V9  DVT A 531       0.782 -12.535 -55.945 +0.09 +0.40    +1.500 Zn
DOCKED: ATOM      9  O2  DVT A 531       2.685 -11.802 -55.033 +0.02 -0.06    -0.750 OA
DOCKED: ATOM     10  O4  DVT A 531       1.745 -12.383 -57.459 +0.02 -0.02    -0.750 OA
DOCKED: ATOM     11  O8  DVT A 531       0.579 -10.539 -55.880 +0.02 -0.12    -0.750 OA
DOCKED: ATOM     12  O26 DVT A 531      -0.696 -13.020 -56.342 -0.06 -0.35    -0.750 OA
DOCKED: ATOM     13  O24 DVT A 531       0.306 -12.259 -54.004 -0.40 -0.65    -0.750 OA
DOCKED: ATOM     14  V7  DVT A 531      -0.514 -10.419 -54.247 +0.11 +0.81    +1.500 Zn
DOCKED: ATOM     15  O11 DVT A 531      -0.513  -8.636 -54.334 +0.02 -0.10    -0.750 OA
DOCKED: ATOM     16  O25 DVT A 531      -1.916 -11.118 -54.592 -0.23 -0.72    -0.750 OA
DOCKED: ATOM     17  O21 DVT A 531      -0.740 -10.379 -52.420 -0.54 -0.80    -0.750 OA
DOCKED: ATOM     18  V6  DVT A 531       0.666  -9.753 -51.360 +0.11 +0.43    +1.500 Zn
DOCKED: ATOM     19  O19 DVT A 531       2.502  -9.535 -51.014 +0.02 -0.04    -0.750 OA
DOCKED: ATOM     20  O22 DVT A 531      -0.094  -9.829 -49.951 +0.03 -0.23    -0.750 OA
DOCKED: ATOM     21  O6  DVT A 531       0.434  -8.008 -51.925 +0.03 -0.06    -0.750 OA
DOCKED: ATOM     22  V8  DVT A 531       1.926 -12.003 -53.028 +0.08 +0.38    +1.500 Zn
DOCKED: ATOM     23  O20 DVT A 531       1.334 -11.702 -51.495 -0.01 -0.27    -0.750 OA
DOCKED: ATOM     24  O23 DVT A 531       2.388 -13.610 -53.067 +0.02 -0.12    -0.750 OA
DOCKED: ATOM     25  O16 DVT A 531       1.552  -9.992 -53.485 +0.02 -0.12    -0.750 OA
DOCKED: ATOM     26  V5  DVT A 531       0.990  -7.710 -53.681 +0.03 +0.03    +1.500 Zn
DOCKED: ATOM     27  O14 DVT A 531       0.687  -6.157 -53.972 +0.01 +0.04    -0.750 OA
DOCKED: ATOM     28  O7  DVT A 531       1.835  -8.160 -55.472 +0.01 +0.01    -0.750 OA
DOCKED: ATOM     29  V2  DVT A 531       2.340  -9.778 -55.483 +0.03 +0.03    +1.500 Zn
DOCKED: ATOM     30  O1  DVT A 531       2.981 -10.039 -57.014 +0.01 +0.02    -0.750 OA
DOCKED: ATOM     31  O17 DVT A 531       3.697 -11.259 -52.769 +0.02 -0.02    -0.750 OA
DOCKED: ATOM     32  V4  DVT A 531       3.416  -9.296 -52.518 +0.02 -0.00    +1.500 Zn
DOCKED: ATOM     33  O13 DVT A 531       2.750  -7.668 -52.971 +0.01 +0.02    -0.750 OA
DOCKED: ATOM     34  O12 DVT A 531       4.884  -8.828 -52.051 +0.00 +0.04    -0.750 OA
DOCKED: ATOM     35  O9  DVT A 531       3.883  -9.515 -54.438 +0.01 +0.02    -0.750 OA
DOCKED: ATOM     36  V3  DVT A 531       4.763 -11.320 -54.449 +0.01 -0.05    +1.500 Zn
DOCKED: ATOM     37  O3  DVT A 531       5.049 -11.346 -56.242 +0.00 +0.04    -0.750 OA
DOCKED: ATOM     38  O10 DVT A 531       6.225 -10.803 -53.974 +0.00 +0.05    -0.750 OA
DOCKED: ENDROOT
DOCKED: TORSDOF 0
DOCKED: TER
DOCKED: ENDMDL
________________________________________________________________________________


	BEGINNING GENETIC ALGORITHM DOCKING 35 of 50
Run: 35 Seed: 256946140 1954150581 [ Run 35 of 50 GA/GALS ]
Beginning LAMARCKIAN GENETIC ALGORITHM (LGA), with a maximum of 2500000 energy evaluations.

Final-Value: -1.850


	FINAL GENETIC ALGORITHM DOCKED STATE
	_______________________________________________


Detailed state:  trans 2.026 -11.054 -53.849 quatxyzw -0.001888 -0.306056 0.774101 -0.554160 center 38.166 -0.098 117.777 ntor 0
State:	  2.026 -11.054 -53.849  -0.002 -0.368  0.930 -112.694  

DOCKED: MODEL       35
DOCKED: USER    Run = 35
DOCKED: USER    DPF = blind_docking.dpf
DOCKED: USER  
DOCKED: USER    Estimated Free Energy of Binding    =   -1.85 kcal/mol  [=(1)+(2)+(3)-(4)]
DOCKED: USER    Estimated Inhibition Constant, Ki   =   44.02 mM (millimolar)  [Temperature = 298.15 K]
DOCKED: USER    
DOCKED: USER    (1) Final Intermolecular Energy     =   -1.85 kcal/mol
DOCKED: USER        vdW + Hbond + desolv Energy     =   -0.36 kcal/mol
DOCKED: USER        Electrostatic Energy            =   -1.49 kcal/mol
DOCKED: USER    (2) Final Total Internal Energy     =   +0.00 kcal/mol
DOCKED: USER    (3) Torsional Free Energy           =   +0.00 kcal/mol
DOCKED: USER    (4) Unbound System's Energy  [=(2)] =   +0.00 kcal/mol
DOCKED: USER    
DOCKED: USER    
DOCKED: USER    NEWDPF move ../ligands/decavanadate.pdbqt
DOCKED: USER    NEWDPF about 38.166447 -0.097658 117.776763
DOCKED: USER    NEWDPF tran0 2.026337 -11.053608 -53.849275
DOCKED: USER    NEWDPF quaternion0 -0.001888 -0.306056 0.774101 -0.554160
DOCKED: USER    NEWDPF axisangle0 -0.002268 -0.367675 0.929952 -112.694178
DOCKED: USER    NEWDPF quat0 -0.002268 -0.367675 0.929952 -112.694178
DOCKED: USER  keepresnum = 1 
DOCKED: USER  
DOCKED: USER                              x       y       z     vdW  Elec       q    Type
DOCKED: USER                           _______ _______ _______ _____ _____    ______ ____
DOCKED: ROOT
DOCKED: ATOM      1  O28 DVT A 531      -0.928 -13.214 -57.148 +0.01 -0.19    -0.750 OA
DOCKED: ATOM      2  V10 DVT A 531       0.010 -12.225 -56.347 +0.09 +0.45    +1.500 Zn
DOCKED: ATOM      3  O18 DVT A 531       1.700 -12.294 -57.100 +0.02 -0.04    -0.750 OA
DOCKED: ATOM      4  O15 DVT A 531      -0.094 -10.611 -57.232 +0.02 -0.06    -0.750 OA
DOCKED: ATOM      5  V1  DVT A 531       0.847  -9.225 -56.480 +0.03 +0.03    +1.500 Zn
DOCKED: ATOM      6  O5  DVT A 531       0.593  -7.963 -57.471 +0.01 +0.04    -0.750 OA
DOCKED: ATOM      7  O27 DVT A 531      -1.217 -11.515 -55.103 -0.45 -0.69    -0.750 OA
DOCKED: ATOM      8  V9  DVT A 531      -0.554 -10.258 -53.941 +0.11 +0.83    +1.500 Zn
DOCKED: ATOM      9  O2  DVT A 531       1.337 -10.882 -54.951 +0.02 -0.14    -0.750 OA
DOCKED: ATOM     10  O4  DVT A 531      -0.496  -8.962 -55.189 +0.02 -0.09    -0.750 OA
DOCKED: ATOM     11  O8  DVT A 531       0.899  -9.329 -52.915 +0.02 -0.14    -0.750 OA
DOCKED: ATOM     12  O26 DVT A 531      -1.844 -10.003 -53.019 -0.28 -0.60    -0.750 OA
DOCKED: ATOM     13  O24 DVT A 531       0.128 -11.766 -52.788 -0.29 -0.80    -0.750 OA
DOCKED: ATOM     14  V7  DVT A 531       1.027 -10.585 -51.405 +0.10 +0.51    +1.500 Zn
DOCKED: ATOM     15  O11 DVT A 531       2.367  -9.646 -50.691 +0.02 -0.04    -0.750 OA
DOCKED: ATOM     16  O25 DVT A 531      -0.369 -10.486 -50.620 -0.09 -0.50    -0.750 OA
DOCKED: ATOM     17  O21 DVT A 531       1.616 -12.133 -50.598 +0.02 -0.19    -0.750 OA
DOCKED: ATOM     18  V6  DVT A 531       3.222 -12.889 -51.184 +0.05 +0.10    +1.500 Zn
DOCKED: ATOM     19  O19 DVT A 531       4.473 -13.263 -52.537 +0.01 +0.00    -0.750 OA
DOCKED: ATOM     20  O22 DVT A 531       3.288 -14.077 -50.111 +0.02 -0.02    -0.750 OA
DOCKED: ATOM     21  O6  DVT A 531       4.234 -11.530 -50.446 +0.01 +0.01    -0.750 OA
DOCKED: ATOM     22  V8  DVT A 531       1.529 -12.649 -53.736 +0.09 +0.50    +1.500 Zn
DOCKED: ATOM     23  O20 DVT A 531       2.019 -13.778 -52.607 +0.01 -0.16    -0.750 OA
DOCKED: ATOM     24  O23 DVT A 531       0.518 -13.437 -54.811 -0.12 -0.43    -0.750 OA
DOCKED: ATOM     25  O16 DVT A 531       2.713 -11.242 -52.730 +0.02 -0.08    -0.750 OA
DOCKED: ATOM     26  V5  DVT A 531       4.104  -9.912 -51.367 +0.02 -0.03    +1.500 Zn
DOCKED: ATOM     27  O14 DVT A 531       5.034  -8.878 -50.557 +0.00 +0.05    -0.750 OA
DOCKED: ATOM     28  O7  DVT A 531       3.535  -8.655 -52.856 +0.01 +0.02    -0.750 OA
DOCKED: ATOM     29  V2  DVT A 531       2.549  -9.477 -53.962 +0.03 +0.05    +1.500 Zn
DOCKED: ATOM     30  O1  DVT A 531       2.115  -8.335 -55.115 +0.01 +0.01    -0.750 OA
DOCKED: ATOM     31  O17 DVT A 531       3.119 -12.686 -54.843 +0.02 -0.04    -0.750 OA
DOCKED: ATOM     32  V4  DVT A 531       4.577 -11.928 -53.705 +0.02 -0.02    +1.500 Zn
DOCKED: ATOM     33  O13 DVT A 531       5.315 -10.682 -52.609 +0.00 +0.03    -0.750 OA
DOCKED: ATOM     34  O12 DVT A 531       5.873 -12.250 -54.602 +0.00 +0.04    -0.750 OA
DOCKED: ATOM     35  O9  DVT A 531       3.941 -10.409 -54.820 +0.01 +0.01    -0.750 OA
DOCKED: ATOM     36  V3  DVT A 531       3.005 -11.359 -56.322 +0.02 +0.01    +1.500 Zn
DOCKED: ATOM     37  O3  DVT A 531       2.472  -9.840 -57.162 +0.01 +0.02    -0.750 OA
DOCKED: ATOM     38  O10 DVT A 531       4.341 -11.664 -57.191 +0.00 +0.04    -0.750 OA
DOCKED: ENDROOT
DOCKED: TORSDOF 0
DOCKED: TER
DOCKED: ENDMDL
________________________________________________________________________________


	BEGINNING GENETIC ALGORITHM DOCKING 36 of 50
Run: 36 Seed: 409060651 749141952 [ Run 36 of 50 GA/GALS ]
Beginning LAMARCKIAN GENETIC ALGORITHM (LGA), with a maximum of 2500000 energy evaluations.

Final-Value: -2.079


	FINAL GENETIC ALGORITHM DOCKED STATE
	_______________________________________________


Detailed state:  trans -26.793 -32.945 -29.556 quatxyzw 0.561828 -0.184360 0.727168 -0.348694 center 38.166 -0.098 117.777 ntor 0
State:	-26.793 -32.945 -29.556   0.599 -0.197  0.776 -139.185  

DOCKED: MODEL       36
DOCKED: USER    Run = 36
DOCKED: USER    DPF = blind_docking.dpf
DOCKED: USER  
DOCKED: USER    Estimated Free Energy of Binding    =   -2.08 kcal/mol  [=(1)+(2)+(3)-(4)]
DOCKED: USER    Estimated Inhibition Constant, Ki   =   29.92 mM (millimolar)  [Temperature = 298.15 K]
DOCKED: USER    
DOCKED: USER    (1) Final Intermolecular Energy     =   -2.08 kcal/mol
DOCKED: USER        vdW + Hbond + desolv Energy     =   +0.17 kcal/mol
DOCKED: USER        Electrostatic Energy            =   -2.25 kcal/mol
DOCKED: USER    (2) Final Total Internal Energy     =   +0.00 kcal/mol
DOCKED: USER    (3) Torsional Free Energy           =   +0.00 kcal/mol
DOCKED: USER    (4) Unbound System's Energy  [=(2)] =   +0.00 kcal/mol
DOCKED: USER    
DOCKED: USER    
DOCKED: USER    NEWDPF move ../ligands/decavanadate.pdbqt
DOCKED: USER    NEWDPF about 38.166447 -0.097658 117.776763
DOCKED: USER    NEWDPF tran0 -26.792748 -32.944792 -29.555794
DOCKED: USER    NEWDPF quaternion0 0.561828 -0.184360 0.727168 -0.348694
DOCKED: USER    NEWDPF axisangle0 0.599452 -0.196706 0.775863 -139.185087
DOCKED: USER    NEWDPF quat0 0.599452 -0.196706 0.775863 -139.185087
DOCKED: USER  keepresnum = 1 
DOCKED: USER  
DOCKED: USER                              x       y       z     vdW  Elec       q    Type
DOCKED: USER                           _______ _______ _______ _____ _____    ______ ____
DOCKED: ROOT
DOCKED: ATOM      1  O28 DVT A 531     -30.247 -36.183 -30.917 +0.00 +0.02    -0.750 OA
DOCKED: ATOM      2  V10 DVT A 531     -29.450 -34.914 -30.414 +0.01 +0.03    +1.500 Zn
DOCKED: ATOM      3  O18 DVT A 531     -29.357 -33.699 -31.806 +0.02 -0.12    -0.750 OA
DOCKED: ATOM      4  O15 DVT A 531     -30.722 -33.754 -29.757 +0.01 -0.02    -0.750 OA
DOCKED: ATOM      5  V1  DVT A 531     -30.081 -32.197 -29.022 +0.02 +0.10    +1.500 Zn
DOCKED: ATOM      6  O5  DVT A 531     -31.406 -31.378 -28.560 +0.02 -0.03    -0.750 OA
DOCKED: ATOM      7  O27 DVT A 531     -29.112 -35.407 -28.624 +0.00 +0.02    -0.750 OA
DOCKED: ATOM      8  V9  DVT A 531     -28.199 -34.180 -27.607 +0.00 -0.03    +1.500 Zn
DOCKED: ATOM      9  O2  DVT A 531     -28.080 -33.188 -29.605 +0.02 -0.08    -0.750 OA
DOCKED: ATOM     10  O4  DVT A 531     -29.621 -33.091 -27.432 +0.00 +0.01    -0.750 OA
DOCKED: ATOM     11  O8  DVT A 531     -26.972 -32.617 -27.325 +0.01 -0.01    -0.750 OA
DOCKED: ATOM     12  O26 DVT A 531     -28.031 -35.003 -26.239 +0.00 +0.04    -0.750 OA
DOCKED: ATOM     13  O24 DVT A 531     -26.482 -34.891 -28.392 +0.00 +0.01    -0.750 OA
DOCKED: ATOM     14  V7  DVT A 531     -25.258 -33.577 -27.449 +0.00 -0.03    +1.500 Zn
DOCKED: ATOM     15  O11 DVT A 531     -24.350 -32.053 -27.252 +0.01 +0.01    -0.750 OA
DOCKED: ATOM     16  O25 DVT A 531     -25.207 -34.569 -26.189 +0.00 +0.04    -0.750 OA
DOCKED: ATOM     17  O21 DVT A 531     -23.866 -34.343 -28.381 +0.00 +0.02    -0.750 OA
DOCKED: ATOM     18  V6  DVT A 531     -23.467 -33.689 -30.085 +0.02 +0.04    +1.500 Zn
DOCKED: ATOM     19  O19 DVT A 531     -23.986 -32.932 -31.726 +0.02 -0.13    -0.750 OA
DOCKED: ATOM     20  O22 DVT A 531     -22.173 -34.597 -30.351 +0.00 +0.02    -0.750 OA
DOCKED: ATOM     21  O6  DVT A 531     -22.798 -32.101 -29.416 +0.01 -0.02    -0.750 OA
DOCKED: ATOM     22  V8  DVT A 531     -26.443 -34.431 -30.244 +0.02 +0.10    +1.500 Zn
DOCKED: ATOM     23  O20 DVT A 531     -24.938 -35.006 -30.687 +0.01 -0.02    -0.750 OA
DOCKED: ATOM     24  O23 DVT A 531     -27.564 -35.580 -30.715 +0.01 -0.01    -0.750 OA
DOCKED: ATOM     25  O16 DVT A 531     -25.487 -32.717 -29.508 +0.02 -0.09    -0.750 OA
DOCKED: ATOM     26  V5  DVT A 531     -24.114 -30.951 -28.761 +0.03 +0.11    +1.500 Zn
DOCKED: ATOM     27  O14 DVT A 531     -23.326 -29.658 -28.218 +0.01 -0.02    -0.750 OA
DOCKED: ATOM     28  O7  DVT A 531     -25.998 -30.302 -28.372 +0.02 -0.09    -0.750 OA
DOCKED: ATOM     29  V2  DVT A 531     -27.125 -31.454 -28.894 +0.03 +0.23    +1.500 Zn
DOCKED: ATOM     30  O1  DVT A 531     -28.631 -30.828 -28.488 +0.02 -0.09    -0.750 OA
DOCKED: ATOM     31  O17 DVT A 531     -26.706 -33.225 -31.738 +0.02 -0.25    -0.750 OA
DOCKED: ATOM     32  V4  DVT A 531     -25.331 -31.791 -31.511 +0.10 +0.81    +1.500 Zn
DOCKED: ATOM     33  O13 DVT A 531     -24.441 -30.513 -30.578 +0.02 -0.26    -0.750 OA
DOCKED: ATOM     34  O12 DVT A 531     -25.456 -31.014 -32.915 -0.10 -1.41    -0.750 OA
DOCKED: ATOM     35  O9  DVT A 531     -26.999 -31.045 -30.727 +0.02 -0.48    -0.750 OA
DOCKED: ATOM     36  V3  DVT A 531     -28.408 -32.208 -31.560 +0.09 +0.77    +1.500 Zn
DOCKED: ATOM     37  O3  DVT A 531     -29.796 -31.420 -30.696 +0.03 -0.22    -0.750 OA
DOCKED: ATOM     38  O10 DVT A 531     -28.497 -31.395 -32.961 -0.35 -1.26    -0.750 OA
DOCKED: ENDROOT
DOCKED: TORSDOF 0
DOCKED: TER
DOCKED: ENDMDL
________________________________________________________________________________


	BEGINNING GENETIC ALGORITHM DOCKING 37 of 50
Run: 37 Seed: 1984495636 1359229127 [ Run 37 of 50 GA/GALS ]
Beginning LAMARCKIAN GENETIC ALGORITHM (LGA), with a maximum of 2500000 energy evaluations.

Final-Value: -2.027


	FINAL GENETIC ALGORITHM DOCKED STATE
	_______________________________________________


Detailed state:  trans -26.013 -31.100 -29.143 quatxyzw 0.833487 0.215283 -0.293705 0.415560 center 38.166 -0.098 117.777 ntor 0
State:	-26.013 -31.100 -29.143   0.916  0.237 -0.323 130.891  

DOCKED: MODEL       37
DOCKED: USER    Run = 37
DOCKED: USER    DPF = blind_docking.dpf
DOCKED: USER  
DOCKED: USER    Estimated Free Energy of Binding    =   -2.03 kcal/mol  [=(1)+(2)+(3)-(4)]
DOCKED: USER    Estimated Inhibition Constant, Ki   =   32.68 mM (millimolar)  [Temperature = 298.15 K]
DOCKED: USER    
DOCKED: USER    (1) Final Intermolecular Energy     =   -2.03 kcal/mol
DOCKED: USER        vdW + Hbond + desolv Energy     =   +0.30 kcal/mol
DOCKED: USER        Electrostatic Energy            =   -2.33 kcal/mol
DOCKED: USER    (2) Final Total Internal Energy     =   +0.00 kcal/mol
DOCKED: USER    (3) Torsional Free Energy           =   +0.00 kcal/mol
DOCKED: USER    (4) Unbound System's Energy  [=(2)] =   +0.00 kcal/mol
DOCKED: USER    
DOCKED: USER    
DOCKED: USER    NEWDPF move ../ligands/decavanadate.pdbqt
DOCKED: USER    NEWDPF about 38.166447 -0.097658 117.776763
DOCKED: USER    NEWDPF tran0 -26.012567 -31.100401 -29.142790
DOCKED: USER    NEWDPF quaternion0 0.833487 0.215283 -0.293705 0.415560
DOCKED: USER    NEWDPF axisangle0 0.916357 0.236687 -0.322907 130.890888
DOCKED: USER    NEWDPF quat0 0.916357 0.236687 -0.322907 130.890888
DOCKED: USER  keepresnum = 1 
DOCKED: USER  
DOCKED: USER                              x       y       z     vdW  Elec       q    Type
DOCKED: USER                           _______ _______ _______ _____ _____    ______ ____
DOCKED: ROOT
DOCKED: ATOM      1  O28 DVT A 531     -26.399 -35.115 -31.973 +0.02 -0.05    -0.750 OA
DOCKED: ATOM      2  V10 DVT A 531     -25.910 -33.960 -31.010 +0.03 +0.20    +1.500 Zn
DOCKED: ATOM      3  O18 DVT A 531     -25.968 -34.592 -29.272 +0.01 -0.01    -0.750 OA
DOCKED: ATOM      4  O15 DVT A 531     -24.093 -34.204 -30.821 +0.01 -0.03    -0.750 OA
DOCKED: ATOM      5  V1  DVT A 531     -23.220 -32.950 -29.802 +0.02 +0.05    +1.500 Zn
DOCKED: ATOM      6  O5  DVT A 531     -21.667 -33.429 -29.792 +0.00 +0.02    -0.750 OA
DOCKED: ATOM      7  O27 DVT A 531     -25.502 -32.613 -32.267 +0.01 -0.36    -0.750 OA
DOCKED: ATOM      8  V9  DVT A 531     -24.850 -31.039 -31.581 +0.13 +0.98    +1.500 Zn
DOCKED: ATOM      9  O2  DVT A 531     -25.362 -32.101 -29.684 +0.02 -0.13    -0.750 OA
DOCKED: ATOM     10  O4  DVT A 531     -23.224 -31.728 -31.231 +0.02 -0.13    -0.750 OA
DOCKED: ATOM     11  O8  DVT A 531     -24.575 -29.668 -30.142 +0.03 -0.23    -0.750 OA
DOCKED: ATOM     12  O26 DVT A 531     -24.741 -30.161 -32.921 -0.38 -1.27    -0.750 OA
DOCKED: ATOM     13  O24 DVT A 531     -26.752 -30.475 -31.217 +0.05 -0.81    -0.750 OA
DOCKED: ATOM     14  V7  DVT A 531     -26.284 -28.711 -30.331 +0.14 +0.90    +1.500 Zn
DOCKED: ATOM     15  O11 DVT A 531     -25.873 -27.633 -28.969 +0.03 -0.12    -0.750 OA
DOCKED: ATOM     16  O25 DVT A 531     -26.255 -28.022 -31.780 -0.19 -1.22    -0.750 OA
DOCKED: ATOM     17  O21 DVT A 531     -28.087 -28.490 -30.026 +0.03 -0.34    -0.750 OA
DOCKED: ATOM     18  V6  DVT A 531     -28.826 -29.220 -28.473 +0.05 +0.19    +1.500 Zn
DOCKED: ATOM     19  O19 DVT A 531     -28.888 -30.545 -27.140 +0.01 -0.02    -0.750 OA
DOCKED: ATOM     20  O22 DVT A 531     -30.310 -28.649 -28.667 +0.03 -0.06    -0.750 OA
DOCKED: ATOM     21  O6  DVT A 531     -27.985 -27.985 -27.385 +0.01 -0.03    -0.750 OA
DOCKED: ATOM     22  V8  DVT A 531     -27.450 -31.601 -29.842 +0.05 +0.43    +1.500 Zn
DOCKED: ATOM     23  O20 DVT A 531     -28.965 -30.933 -29.617 +0.03 -0.18    -0.750 OA
DOCKED: ATOM     24  O23 DVT A 531     -27.647 -32.942 -30.822 +0.02 -0.20    -0.750 OA
DOCKED: ATOM     25  O16 DVT A 531     -26.684 -30.090 -28.608 +0.02 -0.12    -0.750 OA
DOCKED: ATOM     26  V5  DVT A 531     -26.147 -28.263 -27.216 +0.02 +0.04    +1.500 Zn
DOCKED: ATOM     27  O14 DVT A 531     -25.618 -27.083 -26.258 +0.00 +0.02    -0.750 OA
DOCKED: ATOM     28  O7  DVT A 531     -24.376 -29.224 -27.464 +0.01 -0.01    -0.750 OA
DOCKED: ATOM     29  V2  DVT A 531     -24.597 -30.605 -28.421 +0.03 +0.11    +1.500 Zn
DOCKED: ATOM     30  O1  DVT A 531     -23.070 -31.288 -28.586 +0.01 -0.01    -0.750 OA
DOCKED: ATOM     31  O17 DVT A 531     -27.339 -32.557 -28.160 +0.01 -0.04    -0.750 OA
DOCKED: ATOM     32  V4  DVT A 531     -27.261 -31.142 -26.749 +0.01 +0.01    +1.500 Zn
DOCKED: ATOM     33  O13 DVT A 531     -26.608 -29.631 -25.984 +0.00 +0.01    -0.750 OA
DOCKED: ATOM     34  O12 DVT A 531     -27.443 -32.023 -25.414 +0.00 +0.03    -0.750 OA
DOCKED: ATOM     35  O9  DVT A 531     -25.370 -31.664 -27.071 +0.01 -0.00    -0.750 OA
DOCKED: ATOM     36  V3  DVT A 531     -25.577 -33.458 -27.951 +0.01 +0.00    +1.500 Zn
DOCKED: ATOM     37  O3  DVT A 531     -23.798 -33.718 -28.201 +0.00 +0.01    -0.750 OA
DOCKED: ATOM     38  O10 DVT A 531     -25.759 -34.304 -26.579 +0.00 +0.03    -0.750 OA
DOCKED: ENDROOT
DOCKED: TORSDOF 0
DOCKED: TER
DOCKED: ENDMDL
________________________________________________________________________________


	BEGINNING GENETIC ALGORITHM DOCKING 38 of 50
Run: 38 Seed: 1997273700 1723421599 [ Run 38 of 50 GA/GALS ]
Beginning LAMARCKIAN GENETIC ALGORITHM (LGA), with a maximum of 2500000 energy evaluations.

Final-Value: -2.042


	FINAL GENETIC ALGORITHM DOCKED STATE
	_______________________________________________


Detailed state:  trans -26.045 -34.012 -30.643 quatxyzw -0.628313 0.250419 -0.703265 0.218934 center 38.166 -0.098 117.777 ntor 0
State:	-26.045 -34.012 -30.643  -0.644  0.257 -0.721 154.707  

DOCKED: MODEL       38
DOCKED: USER    Run = 38
DOCKED: USER    DPF = blind_docking.dpf
DOCKED: USER  
DOCKED: USER    Estimated Free Energy of Binding    =   -2.04 kcal/mol  [=(1)+(2)+(3)-(4)]
DOCKED: USER    Estimated Inhibition Constant, Ki   =   31.88 mM (millimolar)  [Temperature = 298.15 K]
DOCKED: USER    
DOCKED: USER    (1) Final Intermolecular Energy     =   -2.04 kcal/mol
DOCKED: USER        vdW + Hbond + desolv Energy     =   -0.05 kcal/mol
DOCKED: USER        Electrostatic Energy            =   -1.99 kcal/mol
DOCKED: USER    (2) Final Total Internal Energy     =   +0.00 kcal/mol
DOCKED: USER    (3) Torsional Free Energy           =   +0.00 kcal/mol
DOCKED: USER    (4) Unbound System's Energy  [=(2)] =   +0.00 kcal/mol
DOCKED: USER    
DOCKED: USER    
DOCKED: USER    NEWDPF move ../ligands/decavanadate.pdbqt
DOCKED: USER    NEWDPF about 38.166447 -0.097658 117.776763
DOCKED: USER    NEWDPF tran0 -26.045104 -34.012154 -30.642976
DOCKED: USER    NEWDPF quaternion0 -0.628313 0.250419 -0.703265 0.218934
DOCKED: USER    NEWDPF axisangle0 -0.643935 0.256646 -0.720750 154.707139
DOCKED: USER    NEWDPF quat0 -0.643935 0.256646 -0.720750 154.707139
DOCKED: USER  keepresnum = 1 
DOCKED: USER  
DOCKED: USER                              x       y       z     vdW  Elec       q    Type
DOCKED: USER                           _______ _______ _______ _____ _____    ______ ____
DOCKED: ROOT
DOCKED: ATOM      1  O28 DVT A 531     -29.160 -37.119 -32.861 +0.00 +0.03    -0.750 OA
DOCKED: ATOM      2  V10 DVT A 531     -28.493 -35.963 -32.014 +0.01 +0.02    +1.500 Zn
DOCKED: ATOM      3  O18 DVT A 531     -28.608 -34.392 -32.987 +0.02 -0.11    -0.750 OA
DOCKED: ATOM      4  O15 DVT A 531     -29.858 -35.212 -31.030 +0.01 -0.01    -0.750 OA
DOCKED: ATOM      5  V1  DVT A 531     -29.369 -33.870 -29.876 +0.02 +0.08    +1.500 Zn
DOCKED: ATOM      6  O5  DVT A 531     -30.757 -33.393 -29.178 +0.01 -0.01    -0.750 OA
DOCKED: ATOM      7  O27 DVT A 531     -28.015 -36.909 -30.453 +0.00 +0.03    -0.750 OA
DOCKED: ATOM      8  V9  DVT A 531     -27.204 -35.928 -29.130 +0.00 -0.04    +1.500 Zn
DOCKED: ATOM      9  O2  DVT A 531     -27.296 -34.389 -30.747 +0.02 -0.07    -0.750 OA
DOCKED: ATOM     10  O4  DVT A 531     -28.734 -35.123 -28.626 +0.00 +0.01    -0.750 OA
DOCKED: ATOM     11  O8  DVT A 531     -26.156 -34.374 -28.413 +0.01 +0.00    -0.750 OA
DOCKED: ATOM     12  O26 DVT A 531     -26.877 -37.086 -28.067 +0.00 +0.04    -0.750 OA
DOCKED: ATOM     13  O24 DVT A 531     -25.455 -36.158 -30.109 +0.00 +0.02    -0.750 OA
DOCKED: ATOM     14  V7  DVT A 531     -24.349 -35.033 -28.833 +0.00 -0.04    +1.500 Zn
DOCKED: ATOM     15  O11 DVT A 531     -23.616 -33.532 -28.206 +0.00 +0.01    -0.750 OA
DOCKED: ATOM     16  O25 DVT A 531     -24.123 -36.335 -27.923 +0.00 +0.04    -0.750 OA
DOCKED: ATOM     17  O21 DVT A 531     -22.924 -35.315 -29.965 +0.00 +0.03    -0.750 OA
DOCKED: ATOM     18  V6  DVT A 531     -22.684 -34.148 -31.405 +0.02 +0.01    +1.500 Zn
DOCKED: ATOM     19  O19 DVT A 531     -23.365 -33.016 -32.743 +0.04 -0.11    -0.750 OA
DOCKED: ATOM     20  O22 DVT A 531     -21.307 -34.769 -31.941 +0.00 +0.03    -0.750 OA
DOCKED: ATOM     21  O6  DVT A 531     -22.174 -32.752 -30.305 +0.01 -0.01    -0.750 OA
DOCKED: ATOM     22  V8  DVT A 531     -25.558 -35.177 -31.743 +0.02 +0.07    +1.500 Zn
DOCKED: ATOM     23  O20 DVT A 531     -24.019 -35.406 -32.352 +0.01 -0.01    -0.750 OA
DOCKED: ATOM     24  O23 DVT A 531     -26.559 -36.270 -32.519 +0.01 -0.00    -0.750 OA
DOCKED: ATOM     25  O16 DVT A 531     -24.774 -33.647 -30.545 +0.02 -0.07    -0.750 OA
DOCKED: ATOM     26  V5  DVT A 531     -23.581 -32.018 -29.325 +0.02 +0.09    +1.500 Zn
DOCKED: ATOM     27  O14 DVT A 531     -22.924 -30.851 -28.434 +0.01 -0.01    -0.750 OA
DOCKED: ATOM     28  O7  DVT A 531     -25.508 -31.752 -28.741 +0.02 -0.07    -0.750 OA
DOCKED: ATOM     29  V2  DVT A 531     -26.517 -32.833 -29.567 +0.03 +0.20    +1.500 Zn
DOCKED: ATOM     30  O1  DVT A 531     -28.064 -32.545 -28.978 +0.01 -0.07    -0.750 OA
DOCKED: ATOM     31  O17 DVT A 531     -26.030 -33.631 -32.811 +0.03 -0.22    -0.750 OA
DOCKED: ATOM     32  V4  DVT A 531     -24.822 -32.166 -32.187 +0.12 +0.72    +1.500 Zn
DOCKED: ATOM     33  O13 DVT A 531     -24.043 -31.114 -30.928 +0.02 -0.22    -0.750 OA
DOCKED: ATOM     34  O12 DVT A 531     -25.103 -31.035 -33.298 -0.41 -1.27    -0.750 OA
DOCKED: ATOM     35  O9  DVT A 531     -26.526 -31.895 -31.199 +0.01 -0.43    -0.750 OA
DOCKED: ATOM     36  V3  DVT A 531     -27.828 -32.932 -32.323 +0.09 +0.72    +1.500 Zn
DOCKED: ATOM     37  O3  DVT A 531     -29.256 -32.610 -31.249 +0.02 -0.21    -0.750 OA
DOCKED: ATOM     38  O10 DVT A 531     -28.077 -31.764 -33.420 -0.27 -1.16    -0.750 OA
DOCKED: ENDROOT
DOCKED: TORSDOF 0
DOCKED: TER
DOCKED: ENDMDL
________________________________________________________________________________


	BEGINNING GENETIC ALGORITHM DOCKING 39 of 50
Run: 39 Seed: 378113304 2017505239 [ Run 39 of 50 GA/GALS ]
Beginning LAMARCKIAN GENETIC ALGORITHM (LGA), with a maximum of 2500000 energy evaluations.

Final-Value: -1.857


	FINAL GENETIC ALGORITHM DOCKED STATE
	_______________________________________________


Detailed state:  trans 2.110 -11.238 -53.823 quatxyzw 0.027461 0.300369 -0.767918 0.565090 center 38.166 -0.098 117.777 ntor 0
State:	  2.110 -11.238 -53.823   0.033  0.364 -0.931 111.183  

DOCKED: MODEL       39
DOCKED: USER    Run = 39
DOCKED: USER    DPF = blind_docking.dpf
DOCKED: USER  
DOCKED: USER    Estimated Free Energy of Binding    =   -1.86 kcal/mol  [=(1)+(2)+(3)-(4)]
DOCKED: USER    Estimated Inhibition Constant, Ki   =   43.52 mM (millimolar)  [Temperature = 298.15 K]
DOCKED: USER    
DOCKED: USER    (1) Final Intermolecular Energy     =   -1.86 kcal/mol
DOCKED: USER        vdW + Hbond + desolv Energy     =   -0.36 kcal/mol
DOCKED: USER        Electrostatic Energy            =   -1.50 kcal/mol
DOCKED: USER    (2) Final Total Internal Energy     =   +0.00 kcal/mol
DOCKED: USER    (3) Torsional Free Energy           =   +0.00 kcal/mol
DOCKED: USER    (4) Unbound System's Energy  [=(2)] =   +0.00 kcal/mol
DOCKED: USER    
DOCKED: USER    
DOCKED: USER    NEWDPF move ../ligands/decavanadate.pdbqt
DOCKED: USER    NEWDPF about 38.166447 -0.097658 117.776763
DOCKED: USER    NEWDPF tran0 2.110476 -11.237641 -53.823117
DOCKED: USER    NEWDPF quaternion0 0.027461 0.300369 -0.767918 0.565090
DOCKED: USER    NEWDPF axisangle0 0.033285 0.364070 -0.930777 111.182898
DOCKED: USER    NEWDPF quat0 0.033285 0.364070 -0.930777 111.182898
DOCKED: USER  keepresnum = 1 
DOCKED: USER  
DOCKED: USER                              x       y       z     vdW  Elec       q    Type
DOCKED: USER                           _______ _______ _______ _____ _____    ______ ____
DOCKED: ROOT
DOCKED: ATOM      1  O28 DVT A 531      -0.841 -13.391 -57.128 +0.01 -0.19    -0.750 OA
DOCKED: ATOM      2  V10 DVT A 531       0.115 -12.413 -56.335 +0.09 +0.45    +1.500 Zn
DOCKED: ATOM      3  O18 DVT A 531       1.819 -12.573 -57.039 +0.02 -0.04    -0.750 OA
DOCKED: ATOM      4  O15 DVT A 531       0.098 -10.828 -57.275 +0.02 -0.06    -0.750 OA
DOCKED: ATOM      5  V1  DVT A 531       1.073  -9.454 -56.543 +0.03 +0.03    +1.500 Zn
DOCKED: ATOM      6  O5  DVT A 531       0.896  -8.218 -57.582 +0.01 +0.04    -0.750 OA
DOCKED: ATOM      7  O27 DVT A 531      -1.115 -11.614 -55.149 -0.45 -0.71    -0.750 OA
DOCKED: ATOM      8  V9  DVT A 531      -0.433 -10.345 -54.011 +0.11 +0.82    +1.500 Zn
DOCKED: ATOM      9  O2  DVT A 531       1.458 -11.077 -54.949 +0.02 -0.14    -0.750 OA
DOCKED: ATOM     10  O4  DVT A 531      -0.291  -9.096 -55.299 +0.02 -0.09    -0.750 OA
DOCKED: ATOM     11  O8  DVT A 531       1.029  -9.440 -52.977 +0.02 -0.14    -0.750 OA
DOCKED: ATOM     12  O26 DVT A 531      -1.735 -10.010 -53.134 -0.32 -0.58    -0.750 OA
DOCKED: ATOM     13  O24 DVT A 531       0.158 -11.839 -52.791 -0.27 -0.79    -0.750 OA
DOCKED: ATOM     14  V7  DVT A 531       1.068 -10.648 -51.423 +0.10 +0.51    +1.500 Zn
DOCKED: ATOM     15  O11 DVT A 531       2.425  -9.739 -50.705 +0.02 -0.04    -0.750 OA
DOCKED: ATOM     16  O25 DVT A 531      -0.343 -10.468 -50.681 -0.11 -0.50    -0.750 OA
DOCKED: ATOM     17  O21 DVT A 531       1.573 -12.189 -50.551 +0.02 -0.19    -0.750 OA
DOCKED: ATOM     18  V6  DVT A 531       3.162 -13.027 -51.068 +0.05 +0.10    +1.500 Zn
DOCKED: ATOM     19  O19 DVT A 531       4.432 -13.495 -52.373 +0.01 +0.00    -0.750 OA
DOCKED: ATOM     20  O22 DVT A 531       3.154 -14.180 -49.955 +0.02 -0.02    -0.750 OA
DOCKED: ATOM     21  O6  DVT A 531       4.209 -11.684 -50.347 +0.01 +0.01    -0.750 OA
DOCKED: ATOM     22  V8  DVT A 531       1.547 -12.807 -53.672 +0.10 +0.50    +1.500 Zn
DOCKED: ATOM     23  O20 DVT A 531       1.963 -13.916 -52.493 +0.01 -0.16    -0.750 OA
DOCKED: ATOM     24  O23 DVT A 531       0.534 -13.592 -54.747 -0.09 -0.42    -0.750 OA
DOCKED: ATOM     25  O16 DVT A 531       2.760 -11.415 -52.680 +0.02 -0.08    -0.750 OA
DOCKED: ATOM     26  V5  DVT A 531       4.167 -10.095 -51.324 +0.02 -0.03    +1.500 Zn
DOCKED: ATOM     27  O14 DVT A 531       5.116  -9.071 -50.523 +0.00 +0.05    -0.750 OA
DOCKED: ATOM     28  O7  DVT A 531       3.687  -8.867 -52.869 +0.01 +0.02    -0.750 OA
DOCKED: ATOM     29  V2  DVT A 531       2.699  -9.688 -53.973 +0.03 +0.05    +1.500 Zn
DOCKED: ATOM     30  O1  DVT A 531       2.341  -8.569 -55.175 +0.01 +0.01    -0.750 OA
DOCKED: ATOM     31  O17 DVT A 531       3.163 -12.944 -54.733 +0.02 -0.04    -0.750 OA
DOCKED: ATOM     32  V4  DVT A 531       4.619 -12.205 -53.581 +0.02 -0.02    +1.500 Zn
DOCKED: ATOM     33  O13 DVT A 531       5.378 -10.953 -52.507 +0.00 +0.03    -0.750 OA
DOCKED: ATOM     34  O12 DVT A 531       5.925 -12.608 -54.431 +0.00 +0.04    -0.750 OA
DOCKED: ATOM     35  O9  DVT A 531       4.074 -10.702 -54.762 +0.01 +0.01    -0.750 OA
DOCKED: ATOM     36  V3  DVT A 531       3.140 -11.664 -56.257 +0.02 +0.01    +1.500 Zn
DOCKED: ATOM     37  O3  DVT A 531       2.690 -10.155 -57.160 +0.01 +0.02    -0.750 OA
DOCKED: ATOM     38  O10 DVT A 531       4.485 -12.051 -57.079 +0.00 +0.04    -0.750 OA
DOCKED: ENDROOT
DOCKED: TORSDOF 0
DOCKED: TER
DOCKED: ENDMDL
________________________________________________________________________________


	BEGINNING GENETIC ALGORITHM DOCKING 40 of 50
Run: 40 Seed: 1509457870 65684003 [ Run 40 of 50 GA/GALS ]
Beginning LAMARCKIAN GENETIC ALGORITHM (LGA), with a maximum of 2500000 energy evaluations.

Final-Value: -2.098


	FINAL GENETIC ALGORITHM DOCKED STATE
	_______________________________________________


Detailed state:  trans -26.134 -32.589 -29.775 quatxyzw 0.556725 -0.091529 0.749648 -0.345988 center 38.166 -0.098 117.777 ntor 0
State:	-26.134 -32.589 -29.775   0.593 -0.098  0.799 -139.516  

DOCKED: MODEL       40
DOCKED: USER    Run = 40
DOCKED: USER    DPF = blind_docking.dpf
DOCKED: USER  
DOCKED: USER    Estimated Free Energy of Binding    =   -2.10 kcal/mol  [=(1)+(2)+(3)-(4)]
DOCKED: USER    Estimated Inhibition Constant, Ki   =   28.96 mM (millimolar)  [Temperature = 298.15 K]
DOCKED: USER    
DOCKED: USER    (1) Final Intermolecular Energy     =   -2.10 kcal/mol
DOCKED: USER        vdW + Hbond + desolv Energy     =   +0.07 kcal/mol
DOCKED: USER        Electrostatic Energy            =   -2.16 kcal/mol
DOCKED: USER    (2) Final Total Internal Energy     =   +0.00 kcal/mol
DOCKED: USER    (3) Torsional Free Energy           =   +0.00 kcal/mol
DOCKED: USER    (4) Unbound System's Energy  [=(2)] =   +0.00 kcal/mol
DOCKED: USER    
DOCKED: USER    
DOCKED: USER    NEWDPF move ../ligands/decavanadate.pdbqt
DOCKED: USER    NEWDPF about 38.166447 -0.097658 117.776763
DOCKED: USER    NEWDPF tran0 -26.133634 -32.589389 -29.774970
DOCKED: USER    NEWDPF quaternion0 0.556725 -0.091529 0.749648 -0.345988
DOCKED: USER    NEWDPF axisangle0 0.593372 -0.097554 0.798995 -139.515796
DOCKED: USER    NEWDPF quat0 0.593372 -0.097554 0.798995 -139.515796
DOCKED: USER  keepresnum = 1 
DOCKED: USER  
DOCKED: USER                              x       y       z     vdW  Elec       q    Type
DOCKED: USER                           _______ _______ _______ _____ _____    ______ ____
DOCKED: ROOT
DOCKED: ATOM      1  O28 DVT A 531     -29.190 -36.380 -30.527 +0.00 +0.02    -0.750 OA
DOCKED: ATOM      2  V10 DVT A 531     -28.545 -34.965 -30.240 +0.01 +0.04    +1.500 Zn
DOCKED: ATOM      3  O18 DVT A 531     -28.634 -33.962 -31.793 +0.02 -0.13    -0.750 OA
DOCKED: ATOM      4  O15 DVT A 531     -29.936 -33.882 -29.704 +0.01 -0.03    -0.750 OA
DOCKED: ATOM      5  V1  DVT A 531     -29.476 -32.170 -29.222 +0.02 +0.15    +1.500 Zn
DOCKED: ATOM      6  O5  DVT A 531     -30.882 -31.456 -28.828 +0.02 -0.04    -0.750 OA
DOCKED: ATOM      7  O27 DVT A 531     -28.109 -35.149 -28.414 +0.00 +0.02    -0.750 OA
DOCKED: ATOM      8  V9  DVT A 531     -27.333 -33.688 -27.617 +0.01 -0.01    +1.500 Zn
DOCKED: ATOM      9  O2  DVT A 531     -27.382 -32.988 -29.738 +0.02 -0.11    -0.750 OA
DOCKED: ATOM     10  O4  DVT A 531     -28.875 -32.762 -27.541 +0.01 -0.00    -0.750 OA
DOCKED: ATOM     11  O8  DVT A 531     -26.303 -31.966 -27.607 +0.01 -0.02    -0.750 OA
DOCKED: ATOM     12  O26 DVT A 531     -27.034 -34.278 -26.154 +0.00 +0.04    -0.750 OA
DOCKED: ATOM     13  O24 DVT A 531     -25.559 -34.295 -28.361 +0.01 +0.00    -0.750 OA
DOCKED: ATOM     14  V7  DVT A 531     -24.486 -32.721 -27.662 +0.01 -0.01    +1.500 Zn
DOCKED: ATOM     15  O11 DVT A 531     -23.769 -31.088 -27.719 +0.01 -0.01    -0.750 OA
DOCKED: ATOM     16  O25 DVT A 531     -24.285 -33.507 -26.278 +0.00 +0.04    -0.750 OA
DOCKED: ATOM     17  O21 DVT A 531     -23.032 -33.444 -28.531 +0.00 +0.02    -0.750 OA
DOCKED: ATOM     18  V6  DVT A 531     -22.754 -33.001 -30.325 +0.02 +0.04    +1.500 Zn
DOCKED: ATOM     19  O19 DVT A 531     -23.399 -32.556 -32.035 +0.03 -0.13    -0.750 OA
DOCKED: ATOM     20  O22 DVT A 531     -21.363 -33.777 -30.512 +0.00 +0.03    -0.750 OA
DOCKED: ATOM     21  O6  DVT A 531     -22.272 -31.264 -29.915 +0.01 -0.03    -0.750 OA
DOCKED: ATOM     22  V8  DVT A 531     -25.618 -34.107 -30.260 +0.03 +0.11    +1.500 Zn
DOCKED: ATOM     23  O20 DVT A 531     -24.064 -34.557 -30.676 +0.01 -0.02    -0.750 OA
DOCKED: ATOM     24  O23 DVT A 531     -26.599 -35.437 -30.518 +0.01 -0.01    -0.750 OA
DOCKED: ATOM     25  O16 DVT A 531     -24.865 -32.203 -29.812 +0.02 -0.11    -0.750 OA
DOCKED: ATOM     26  V5  DVT A 531     -23.705 -30.197 -29.376 +0.04 +0.17    +1.500 Zn
DOCKED: ATOM     27  O14 DVT A 531     -23.071 -28.753 -29.054 +0.02 -0.04    -0.750 OA
DOCKED: ATOM     28  O7  DVT A 531     -25.646 -29.727 -29.009 +0.03 -0.15    -0.750 OA
DOCKED: ATOM     29  V2  DVT A 531     -26.633 -31.069 -29.318 +0.04 +0.35    +1.500 Zn
DOCKED: ATOM     30  O1  DVT A 531     -28.196 -30.574 -28.945 +0.02 -0.14    -0.750 OA
DOCKED: ATOM     31  O17 DVT A 531     -26.061 -33.170 -31.897 +0.02 -0.25    -0.750 OA
DOCKED: ATOM     32  V4  DVT A 531     -24.870 -31.566 -31.930 +0.13 +0.93    +1.500 Zn
DOCKED: ATOM     33  O13 DVT A 531     -24.124 -30.069 -31.223 +0.01 -0.34    -0.750 OA
DOCKED: ATOM     34  O12 DVT A 531     -25.121 -31.021 -33.424 -0.38 -1.32    -0.750 OA
DOCKED: ATOM     35  O9  DVT A 531     -26.599 -30.918 -31.193 +0.02 -0.67    -0.750 OA
DOCKED: ATOM     36  V3  DVT A 531     -27.872 -32.349 -31.797 +0.09 +0.87    +1.500 Zn
DOCKED: ATOM     37  O3  DVT A 531     -29.327 -31.615 -30.999 +0.02 -0.29    -0.750 OA
DOCKED: ATOM     38  O10 DVT A 531     -28.091 -31.765 -33.294 -0.29 -1.14    -0.750 OA
DOCKED: ENDROOT
DOCKED: TORSDOF 0
DOCKED: TER
DOCKED: ENDMDL
________________________________________________________________________________


	BEGINNING GENETIC ALGORITHM DOCKING 41 of 50
Run: 41 Seed: 77197257 1434137813 [ Run 41 of 50 GA/GALS ]
Beginning LAMARCKIAN GENETIC ALGORITHM (LGA), with a maximum of 2500000 energy evaluations.

Final-Value: -1.880


	FINAL GENETIC ALGORITHM DOCKED STATE
	_______________________________________________


Detailed state:  trans -50.117 -12.155 -57.446 quatxyzw -0.107924 0.314057 -0.489217 -0.806466 center 38.166 -0.098 117.777 ntor 0
State:	-50.117 -12.155 -57.446  -0.183  0.531 -0.827 -72.496  

DOCKED: MODEL       41
DOCKED: USER    Run = 41
DOCKED: USER    DPF = blind_docking.dpf
DOCKED: USER  
DOCKED: USER    Estimated Free Energy of Binding    =   -1.88 kcal/mol  [=(1)+(2)+(3)-(4)]
DOCKED: USER    Estimated Inhibition Constant, Ki   =   41.84 mM (millimolar)  [Temperature = 298.15 K]
DOCKED: USER    
DOCKED: USER    (1) Final Intermolecular Energy     =   -1.88 kcal/mol
DOCKED: USER        vdW + Hbond + desolv Energy     =   -0.35 kcal/mol
DOCKED: USER        Electrostatic Energy            =   -1.53 kcal/mol
DOCKED: USER    (2) Final Total Internal Energy     =   +0.00 kcal/mol
DOCKED: USER    (3) Torsional Free Energy           =   +0.00 kcal/mol
DOCKED: USER    (4) Unbound System's Energy  [=(2)] =   +0.00 kcal/mol
DOCKED: USER    
DOCKED: USER    
DOCKED: USER    NEWDPF move ../ligands/decavanadate.pdbqt
DOCKED: USER    NEWDPF about 38.166447 -0.097658 117.776763
DOCKED: USER    NEWDPF tran0 -50.116526 -12.155146 -57.446288
DOCKED: USER    NEWDPF quaternion0 -0.107924 0.314057 -0.489217 -0.806466
DOCKED: USER    NEWDPF axisangle0 -0.182526 0.531147 -0.827386 -72.495877
DOCKED: USER    NEWDPF quat0 -0.182526 0.531147 -0.827386 -72.495877
DOCKED: USER  keepresnum = 1 
DOCKED: USER  
DOCKED: USER                              x       y       z     vdW  Elec       q    Type
DOCKED: USER                           _______ _______ _______ _____ _____    ______ ____
DOCKED: ROOT
DOCKED: ATOM      1  O28 DVT A 531     -47.839  -8.248 -59.402 +0.02 -0.01    -0.750 OA
DOCKED: ATOM      2  V10 DVT A 531     -48.674  -9.567 -59.148 +0.04 +0.08    +1.500 Zn
DOCKED: ATOM      3  O18 DVT A 531     -50.471  -9.122 -59.145 +0.01 +0.00    -0.750 OA
DOCKED: ATOM      4  O15 DVT A 531     -49.055 -10.247 -60.817 +0.01 +0.02    -0.750 OA
DOCKED: ATOM      5  V1  DVT A 531     -49.966 -11.841 -60.842 +0.01 -0.05    +1.500 Zn
DOCKED: ATOM      6  O5  DVT A 531     -50.179 -12.175 -62.418 +0.00 +0.05    -0.750 OA
DOCKED: ATOM      7  O27 DVT A 531     -47.286 -10.841 -59.049 +0.02 -0.10    -0.750 OA
DOCKED: ATOM      8  V9  DVT A 531     -47.805 -12.581 -58.779 +0.07 +0.28    +1.500 Zn
DOCKED: ATOM      9  O2  DVT A 531     -49.777 -11.555 -58.561 +0.02 -0.07    -0.750 OA
DOCKED: ATOM     10  O4  DVT A 531     -48.388 -12.794 -60.469 +0.01 -0.00    -0.750 OA
DOCKED: ATOM     11  O8  DVT A 531     -49.062 -14.022 -58.168 +0.02 -0.10    -0.750 OA
DOCKED: ATOM     12  O26 DVT A 531     -46.373 -13.296 -58.653 +0.01 -0.19    -0.750 OA
DOCKED: ATOM     13  O24 DVT A 531     -47.920 -12.182 -56.805 -0.43 -0.68    -0.750 OA
DOCKED: ATOM     14  V7  DVT A 531     -48.593 -14.015 -56.257 +0.16 +0.73    +1.500 Zn
DOCKED: ATOM     15  O11 DVT A 531     -49.826 -15.259 -55.913 +0.04 -0.07    -0.750 OA
DOCKED: ATOM     16  O25 DVT A 531     -47.072 -14.518 -56.166 -0.53 -0.70    -0.750 OA
DOCKED: ATOM     17  O21 DVT A 531     -48.704 -13.360 -54.539 -0.16 -0.59    -0.750 OA
DOCKED: ATOM     18  V6  DVT A 531     -50.272 -12.487 -54.017 +0.23 +0.50    +1.500 Zn
DOCKED: ATOM     19  O19 DVT A 531     -51.762 -11.404 -54.394 +0.04 -0.08    -0.750 OA
DOCKED: ATOM     20  O22 DVT A 531     -49.871 -12.252 -52.483 -0.41 -0.47    -0.750 OA
DOCKED: ATOM     21  O6  DVT A 531     -51.251 -14.055 -54.012 +0.05 -0.05    -0.750 OA
DOCKED: ATOM     22  V8  DVT A 531     -49.369 -10.970 -56.530 +0.12 +0.58    +1.500 Zn
DOCKED: ATOM     23  O20 DVT A 531     -49.365 -10.838 -54.864 +0.02 -0.49    -0.750 OA
DOCKED: ATOM     24  O23 DVT A 531     -48.567  -9.629 -57.129 +0.02 -0.20    -0.750 OA
DOCKED: ATOM     25  O16 DVT A 531     -50.447 -12.753 -56.310 +0.03 -0.15    -0.750 OA
DOCKED: ATOM     26  V5  DVT A 531     -51.617 -14.714 -55.719 +0.05 +0.01    +1.500 Zn
DOCKED: ATOM     27  O14 DVT A 531     -52.449 -16.072 -55.488 +0.01 +0.05    -0.750 OA
DOCKED: ATOM     28  O7  DVT A 531     -51.660 -14.713 -57.749 +0.01 +0.02    -0.750 OA
DOCKED: ATOM     29  V2  DVT A 531     -50.886 -13.327 -58.343 +0.03 +0.04    +1.500 Zn
DOCKED: ATOM     30  O1  DVT A 531     -50.952 -13.457 -60.017 +0.01 +0.03    -0.750 OA
DOCKED: ATOM     31  O17 DVT A 531     -51.169 -10.320 -56.835 +0.02 -0.06    -0.750 OA
DOCKED: ATOM     32  V4  DVT A 531     -52.373 -11.701 -56.036 +0.03 +0.04    +1.500 Zn
DOCKED: ATOM     33  O13 DVT A 531     -52.979 -13.394 -55.785 +0.01 +0.01    -0.750 OA
DOCKED: ATOM     34  O12 DVT A 531     -53.795 -10.949 -56.101 +0.00 +0.03    -0.750 OA
DOCKED: ATOM     35  O9  DVT A 531     -52.294 -12.135 -57.975 +0.01 +0.01    -0.750 OA
DOCKED: ATOM     36  V3  DVT A 531     -51.653 -10.403 -58.764 +0.01 -0.02    +1.500 Zn
DOCKED: ATOM     37  O3  DVT A 531     -51.599 -11.016 -60.471 +0.00 +0.04    -0.750 OA
DOCKED: ATOM     38  O10 DVT A 531     -53.107  -9.684 -58.806 +0.00 +0.04    -0.750 OA
DOCKED: ENDROOT
DOCKED: TORSDOF 0
DOCKED: TER
DOCKED: ENDMDL
________________________________________________________________________________


	BEGINNING GENETIC ALGORITHM DOCKING 42 of 50
Run: 42 Seed: 1693639530 901296391 [ Run 42 of 50 GA/GALS ]
Beginning LAMARCKIAN GENETIC ALGORITHM (LGA), with a maximum of 2500000 energy evaluations.

Final-Value: -2.088


	FINAL GENETIC ALGORITHM DOCKED STATE
	_______________________________________________


Detailed state:  trans -26.352 -32.956 -29.945 quatxyzw 0.522310 -0.614199 -0.244390 0.538727 center 38.166 -0.098 117.777 ntor 0
State:	-26.352 -32.956 -29.945   0.620 -0.729 -0.290 114.806  

DOCKED: MODEL       42
DOCKED: USER    Run = 42
DOCKED: USER    DPF = blind_docking.dpf
DOCKED: USER  
DOCKED: USER    Estimated Free Energy of Binding    =   -2.09 kcal/mol  [=(1)+(2)+(3)-(4)]
DOCKED: USER    Estimated Inhibition Constant, Ki   =   29.48 mM (millimolar)  [Temperature = 298.15 K]
DOCKED: USER    
DOCKED: USER    (1) Final Intermolecular Energy     =   -2.09 kcal/mol
DOCKED: USER        vdW + Hbond + desolv Energy     =   +0.15 kcal/mol
DOCKED: USER        Electrostatic Energy            =   -2.24 kcal/mol
DOCKED: USER    (2) Final Total Internal Energy     =   +0.00 kcal/mol
DOCKED: USER    (3) Torsional Free Energy           =   +0.00 kcal/mol
DOCKED: USER    (4) Unbound System's Energy  [=(2)] =   +0.00 kcal/mol
DOCKED: USER    
DOCKED: USER    
DOCKED: USER    NEWDPF move ../ligands/decavanadate.pdbqt
DOCKED: USER    NEWDPF about 38.166447 -0.097658 117.776763
DOCKED: USER    NEWDPF tran0 -26.352442 -32.956420 -29.944790
DOCKED: USER    NEWDPF quaternion0 0.522310 -0.614199 -0.244390 0.538727
DOCKED: USER    NEWDPF axisangle0 0.619967 -0.729036 -0.290083 114.806015
DOCKED: USER    NEWDPF quat0 0.619967 -0.729036 -0.290083 114.806015
DOCKED: USER  keepresnum = 1 
DOCKED: USER  
DOCKED: USER                              x       y       z     vdW  Elec       q    Type
DOCKED: USER                           _______ _______ _______ _____ _____    ______ ____
DOCKED: ROOT
DOCKED: ATOM      1  O28 DVT A 531     -30.946 -31.310 -29.265 +0.02 -0.06    -0.750 OA
DOCKED: ATOM      2  V10 DVT A 531     -29.657 -32.177 -29.555 +0.03 +0.18    +1.500 Zn
DOCKED: ATOM      3  O18 DVT A 531     -29.275 -33.172 -28.041 +0.01 -0.01    -0.750 OA
DOCKED: ATOM      4  O15 DVT A 531     -30.273 -33.787 -30.207 +0.01 -0.04    -0.750 OA
DOCKED: ATOM      5  V1  DVT A 531     -28.983 -34.993 -30.711 +0.01 +0.05    +1.500 Zn
DOCKED: ATOM      6  O5  DVT A 531     -29.807 -36.301 -31.211 +0.00 +0.02    -0.750 OA
DOCKED: ATOM      7  O27 DVT A 531     -29.310 -31.693 -31.345 +0.01 -0.33    -0.750 OA
DOCKED: ATOM      8  V9  DVT A 531     -27.866 -32.504 -32.137 +0.10 +0.91    +1.500 Zn
DOCKED: ATOM      9  O2  DVT A 531     -27.626 -33.250 -30.045 +0.02 -0.11    -0.750 OA
DOCKED: ATOM     10  O4  DVT A 531     -28.710 -34.082 -32.334 +0.02 -0.13    -0.750 OA
DOCKED: ATOM     11  O8  DVT A 531     -26.098 -33.455 -32.137 +0.02 -0.22    -0.750 OA
DOCKED: ATOM     12  O26 DVT A 531     -27.859 -31.762 -33.561 -0.14 -1.24    -0.750 OA
DOCKED: ATOM     13  O24 DVT A 531     -26.684 -31.119 -31.269 +0.02 -0.66    -0.750 OA
DOCKED: ATOM     14  V7  DVT A 531     -24.931 -31.881 -31.949 +0.12 +0.82    +1.500 Zn
DOCKED: ATOM     15  O11 DVT A 531     -23.480 -32.919 -31.898 +0.03 -0.10    -0.750 OA
DOCKED: ATOM     16  O25 DVT A 531     -25.111 -31.025 -33.294 -0.41 -1.28    -0.750 OA
DOCKED: ATOM     17  O21 DVT A 531     -24.086 -30.568 -30.972 +0.02 -0.27    -0.750 OA
DOCKED: ATOM     18  V6  DVT A 531     -23.685 -30.908 -29.179 +0.03 +0.13    +1.500 Zn
DOCKED: ATOM     19  O19 DVT A 531     -24.073 -31.716 -27.526 +0.01 +0.00    -0.750 OA
DOCKED: ATOM     20  O22 DVT A 531     -22.898 -29.542 -28.885 +0.02 -0.03    -0.750 OA
DOCKED: ATOM     21  O6  DVT A 531     -22.366 -32.128 -29.612 +0.01 -0.01    -0.750 OA
DOCKED: ATOM     22  V8  DVT A 531     -26.707 -31.419 -29.384 +0.04 +0.33    +1.500 Zn
DOCKED: ATOM     23  O20 DVT A 531     -25.621 -30.262 -28.861 +0.02 -0.13    -0.750 OA
DOCKED: ATOM     24  O23 DVT A 531     -28.240 -30.794 -29.145 +0.02 -0.15    -0.750 OA
DOCKED: ATOM     25  O16 DVT A 531     -25.068 -32.642 -29.843 +0.02 -0.10    -0.750 OA
DOCKED: ATOM     26  V5  DVT A 531     -23.027 -33.745 -30.268 +0.01 +0.02    +1.500 Zn
DOCKED: ATOM     27  O14 DVT A 531     -21.731 -34.640 -30.595 +0.00 +0.03    -0.750 OA
DOCKED: ATOM     28  O7  DVT A 531     -24.437 -35.118 -30.766 +0.01 -0.01    -0.750 OA
DOCKED: ATOM     29  V2  DVT A 531     -25.984 -34.490 -30.477 +0.02 +0.10    +1.500 Zn
DOCKED: ATOM     30  O1  DVT A 531     -27.056 -35.691 -30.959 +0.01 -0.01    -0.750 OA
DOCKED: ATOM     31  O17 DVT A 531     -26.666 -32.542 -27.805 +0.01 -0.02    -0.750 OA
DOCKED: ATOM     32  V4  DVT A 531     -24.822 -33.311 -27.749 +0.01 -0.01    +1.500 Zn
DOCKED: ATOM     33  O13 DVT A 531     -23.388 -34.174 -28.455 +0.00 +0.02    -0.750 OA
DOCKED: ATOM     34  O12 DVT A 531     -24.812 -33.992 -26.290 +0.00 +0.04    -0.750 OA
DOCKED: ATOM     35  O9  DVT A 531     -25.945 -34.709 -28.608 +0.01 +0.01    -0.750 OA
DOCKED: ATOM     36  V3  DVT A 531     -27.793 -34.165 -28.040 +0.01 -0.01    +1.500 Zn
DOCKED: ATOM     37  O3  DVT A 531     -28.635 -35.493 -28.947 +0.00 +0.02    -0.750 OA
DOCKED: ATOM     38  O10 DVT A 531     -27.736 -34.864 -26.577 +0.00 +0.04    -0.750 OA
DOCKED: ENDROOT
DOCKED: TORSDOF 0
DOCKED: TER
DOCKED: ENDMDL
________________________________________________________________________________


	BEGINNING GENETIC ALGORITHM DOCKING 43 of 50
Run: 43 Seed: 697499310 406665703 [ Run 43 of 50 GA/GALS ]
Beginning LAMARCKIAN GENETIC ALGORITHM (LGA), with a maximum of 2500000 energy evaluations.

Final-Value: -1.859


	FINAL GENETIC ALGORITHM DOCKED STATE
	_______________________________________________


Detailed state:  trans 2.084 -11.130 -53.843 quatxyzw -0.023961 -0.291761 0.780154 -0.552867 center 38.166 -0.098 117.777 ntor 0
State:	  2.084 -11.130 -53.843  -0.029 -0.350  0.936 -112.872  

DOCKED: MODEL       43
DOCKED: USER    Run = 43
DOCKED: USER    DPF = blind_docking.dpf
DOCKED: USER  
DOCKED: USER    Estimated Free Energy of Binding    =   -1.86 kcal/mol  [=(1)+(2)+(3)-(4)]
DOCKED: USER    Estimated Inhibition Constant, Ki   =   43.41 mM (millimolar)  [Temperature = 298.15 K]
DOCKED: USER    
DOCKED: USER    (1) Final Intermolecular Energy     =   -1.86 kcal/mol
DOCKED: USER        vdW + Hbond + desolv Energy     =   -0.36 kcal/mol
DOCKED: USER        Electrostatic Energy            =   -1.49 kcal/mol
DOCKED: USER    (2) Final Total Internal Energy     =   +0.00 kcal/mol
DOCKED: USER    (3) Torsional Free Energy           =   +0.00 kcal/mol
DOCKED: USER    (4) Unbound System's Energy  [=(2)] =   +0.00 kcal/mol
DOCKED: USER    
DOCKED: USER    
DOCKED: USER    NEWDPF move ../ligands/decavanadate.pdbqt
DOCKED: USER    NEWDPF about 38.166447 -0.097658 117.776763
DOCKED: USER    NEWDPF tran0 2.084289 -11.129686 -53.843199
DOCKED: USER    NEWDPF quaternion0 -0.023961 -0.291761 0.780154 -0.552867
DOCKED: USER    NEWDPF axisangle0 -0.028755 -0.350140 0.936256 -112.872169
DOCKED: USER    NEWDPF quat0 -0.028755 -0.350140 0.936256 -112.872169
DOCKED: USER  keepresnum = 1 
DOCKED: USER  
DOCKED: USER                              x       y       z     vdW  Elec       q    Type
DOCKED: USER                           _______ _______ _______ _____ _____    ______ ____
DOCKED: ROOT
DOCKED: ATOM      1  O28 DVT A 531      -0.818 -13.440 -57.085 +0.01 -0.19    -0.750 OA
DOCKED: ATOM      2  V10 DVT A 531       0.110 -12.416 -56.317 +0.09 +0.46    +1.500 Zn
DOCKED: ATOM      3  O18 DVT A 531       1.813 -12.530 -57.033 +0.02 -0.04    -0.750 OA
DOCKED: ATOM      4  O15 DVT A 531       0.031 -10.849 -57.284 +0.02 -0.06    -0.750 OA
DOCKED: ATOM      5  V1  DVT A 531       0.965  -9.431 -56.584 +0.03 +0.03    +1.500 Zn
DOCKED: ATOM      6  O5  DVT A 531       0.736  -8.219 -57.643 +0.01 +0.04    -0.750 OA
DOCKED: ATOM      7  O27 DVT A 531      -1.138 -11.639 -55.135 -0.43 -0.73    -0.750 OA
DOCKED: ATOM      8  V9  DVT A 531      -0.490 -10.328 -54.024 +0.11 +0.83    +1.500 Zn
DOCKED: ATOM      9  O2  DVT A 531       1.417 -11.011 -54.965 +0.02 -0.14    -0.750 OA
DOCKED: ATOM     10  O4  DVT A 531      -0.401  -9.097 -55.335 +0.02 -0.09    -0.750 OA
DOCKED: ATOM     11  O8  DVT A 531       0.949  -9.355 -53.019 +0.02 -0.14    -0.750 OA
DOCKED: ATOM     12  O26 DVT A 531      -1.795 -10.022 -53.142 -0.30 -0.58    -0.750 OA
DOCKED: ATOM     13  O24 DVT A 531       0.162 -11.779 -52.784 -0.29 -0.78    -0.750 OA
DOCKED: ATOM     14  V7  DVT A 531       1.041 -10.534 -51.445 +0.10 +0.50    +1.500 Zn
DOCKED: ATOM     15  O11 DVT A 531       2.373  -9.567 -50.754 +0.02 -0.04    -0.750 OA
DOCKED: ATOM     16  O25 DVT A 531      -0.369 -10.390 -50.693 -0.13 -0.48    -0.750 OA
DOCKED: ATOM     17  O21 DVT A 531       1.607 -12.042 -50.551 +0.02 -0.19    -0.750 OA
DOCKED: ATOM     18  V6  DVT A 531       3.219 -12.833 -51.067 +0.05 +0.10    +1.500 Zn
DOCKED: ATOM     19  O19 DVT A 531       4.494 -13.280 -52.375 +0.01 +0.01    -0.750 OA
DOCKED: ATOM     20  O22 DVT A 531       3.259 -13.967 -49.934 +0.02 -0.02    -0.750 OA
DOCKED: ATOM     21  O6  DVT A 531       4.225 -11.444 -50.378 +0.01 +0.01    -0.750 OA
DOCKED: ATOM     22  V8  DVT A 531       1.577 -12.715 -53.660 +0.09 +0.49    +1.500 Zn
DOCKED: ATOM     23  O20 DVT A 531       2.039 -13.788 -52.466 +0.02 -0.16    -0.750 OA
DOCKED: ATOM     24  O23 DVT A 531       0.582 -13.552 -54.712 -0.09 -0.41    -0.750 OA
DOCKED: ATOM     25  O16 DVT A 531       2.748 -11.265 -52.703 +0.02 -0.08    -0.750 OA
DOCKED: ATOM     26  V5  DVT A 531       4.121  -9.874 -51.382 +0.02 -0.03    +1.500 Zn
DOCKED: ATOM     27  O14 DVT A 531       5.040  -8.805 -50.607 +0.00 +0.05    -0.750 OA
DOCKED: ATOM     28  O7  DVT A 531       3.587  -8.691 -52.943 +0.01 +0.02    -0.750 OA
DOCKED: ATOM     29  V2  DVT A 531       2.618  -9.563 -54.025 +0.03 +0.05    +1.500 Zn
DOCKED: ATOM     30  O1  DVT A 531       2.212  -8.479 -55.242 +0.01 +0.01    -0.750 OA
DOCKED: ATOM     31  O17 DVT A 531       3.187 -12.815 -54.733 +0.02 -0.04    -0.750 OA
DOCKED: ATOM     32  V4  DVT A 531       4.627 -12.007 -53.606 +0.02 -0.02    +1.500 Zn
DOCKED: ATOM     33  O13 DVT A 531       5.350 -10.711 -52.561 +0.00 +0.03    -0.750 OA
DOCKED: ATOM     34  O12 DVT A 531       5.939 -12.379 -54.461 +0.00 +0.04    -0.750 OA
DOCKED: ATOM     35  O9  DVT A 531       4.020 -10.543 -54.808 +0.01 +0.01    -0.750 OA
DOCKED: ATOM     36  V3  DVT A 531       3.108 -11.563 -56.278 +0.02 +0.01    +1.500 Zn
DOCKED: ATOM     37  O3  DVT A 531       2.599 -10.086 -57.203 +0.01 +0.02    -0.750 OA
DOCKED: ATOM     38  O10 DVT A 531       4.459 -11.918 -57.105 +0.00 +0.04    -0.750 OA
DOCKED: ENDROOT
DOCKED: TORSDOF 0
DOCKED: TER
DOCKED: ENDMDL
________________________________________________________________________________


	BEGINNING GENETIC ALGORITHM DOCKING 44 of 50
Run: 44 Seed: 2084948483 368315066 [ Run 44 of 50 GA/GALS ]
Beginning LAMARCKIAN GENETIC ALGORITHM (LGA), with a maximum of 2500000 energy evaluations.

Final-Value: -2.106


	FINAL GENETIC ALGORITHM DOCKED STATE
	_______________________________________________


Detailed state:  trans -26.179 -33.467 -30.189 quatxyzw 0.591638 -0.189999 0.735565 -0.269831 center 38.166 -0.098 117.777 ntor 0
State:	-26.179 -33.467 -30.189   0.614 -0.197  0.764 -148.692  

DOCKED: MODEL       44
DOCKED: USER    Run = 44
DOCKED: USER    DPF = blind_docking.dpf
DOCKED: USER  
DOCKED: USER    Estimated Free Energy of Binding    =   -2.11 kcal/mol  [=(1)+(2)+(3)-(4)]
DOCKED: USER    Estimated Inhibition Constant, Ki   =   28.58 mM (millimolar)  [Temperature = 298.15 K]
DOCKED: USER    
DOCKED: USER    (1) Final Intermolecular Energy     =   -2.11 kcal/mol
DOCKED: USER        vdW + Hbond + desolv Energy     =   -0.04 kcal/mol
DOCKED: USER        Electrostatic Energy            =   -2.07 kcal/mol
DOCKED: USER    (2) Final Total Internal Energy     =   +0.00 kcal/mol
DOCKED: USER    (3) Torsional Free Energy           =   +0.00 kcal/mol
DOCKED: USER    (4) Unbound System's Energy  [=(2)] =   +0.00 kcal/mol
DOCKED: USER    
DOCKED: USER    
DOCKED: USER    NEWDPF move ../ligands/decavanadate.pdbqt
DOCKED: USER    NEWDPF about 38.166447 -0.097658 117.776763
DOCKED: USER    NEWDPF tran0 -26.179107 -33.466595 -30.189318
DOCKED: USER    NEWDPF quaternion0 0.591638 -0.189999 0.735565 -0.269831
DOCKED: USER    NEWDPF axisangle0 0.614429 -0.197318 0.763900 -148.691638
DOCKED: USER    NEWDPF quat0 0.614429 -0.197318 0.763900 -148.691638
DOCKED: USER  keepresnum = 1 
DOCKED: USER  
DOCKED: USER                              x       y       z     vdW  Elec       q    Type
DOCKED: USER                           _______ _______ _______ _____ _____    ______ ____
DOCKED: ROOT
DOCKED: ATOM      1  O28 DVT A 531     -29.214 -36.934 -31.933 +0.00 +0.02    -0.750 OA
DOCKED: ATOM      2  V10 DVT A 531     -28.577 -35.642 -31.283 +0.01 +0.03    +1.500 Zn
DOCKED: ATOM      3  O18 DVT A 531     -28.647 -34.273 -32.527 +0.02 -0.12    -0.750 OA
DOCKED: ATOM      4  O15 DVT A 531     -29.978 -34.731 -30.506 +0.01 -0.02    -0.750 OA
DOCKED: ATOM      5  V1  DVT A 531     -29.530 -33.201 -29.594 +0.02 +0.11    +1.500 Zn
DOCKED: ATOM      6  O5  DVT A 531     -30.943 -32.611 -29.050 +0.01 -0.03    -0.750 OA
DOCKED: ATOM      7  O27 DVT A 531     -28.165 -36.289 -29.559 +0.00 +0.02    -0.750 OA
DOCKED: ATOM      8  V9  DVT A 531     -27.404 -35.082 -28.403 +0.00 -0.03    +1.500 Zn
DOCKED: ATOM      9  O2  DVT A 531     -27.426 -33.861 -30.274 +0.02 -0.08    -0.750 OA
DOCKED: ATOM     10  O4  DVT A 531     -28.950 -34.206 -28.114 +0.01 +0.01    -0.750 OA
DOCKED: ATOM     11  O8  DVT A 531     -26.380 -33.421 -27.937 +0.01 -0.01    -0.750 OA
DOCKED: ATOM     12  O26 DVT A 531     -27.124 -36.028 -27.137 +0.00 +0.04    -0.750 OA
DOCKED: ATOM     13  O24 DVT A 531     -25.619 -35.479 -29.254 +0.00 +0.01    -0.750 OA
DOCKED: ATOM     14  V7  DVT A 531     -24.561 -34.138 -28.158 +0.00 -0.03    +1.500 Zn
DOCKED: ATOM     15  O11 DVT A 531     -23.848 -32.545 -27.783 +0.01 +0.01    -0.750 OA
DOCKED: ATOM     16  O25 DVT A 531     -24.376 -35.254 -27.020 +0.00 +0.04    -0.750 OA
DOCKED: ATOM     17  O21 DVT A 531     -23.092 -34.614 -29.163 +0.00 +0.02    -0.750 OA
DOCKED: ATOM     18  V6  DVT A 531     -22.791 -33.725 -30.779 +0.02 +0.02    +1.500 Zn
DOCKED: ATOM     19  O19 DVT A 531     -23.413 -32.856 -32.326 +0.03 -0.11    -0.750 OA
DOCKED: ATOM     20  O22 DVT A 531     -21.396 -34.428 -31.139 +0.00 +0.03    -0.750 OA
DOCKED: ATOM     21  O6  DVT A 531     -22.320 -32.152 -29.929 +0.01 -0.02    -0.750 OA
DOCKED: ATOM     22  V8  DVT A 531     -25.653 -34.809 -31.041 +0.02 +0.09    +1.500 Zn
DOCKED: ATOM     23  O20 DVT A 531     -24.091 -35.138 -31.536 +0.01 -0.01    -0.750 OA
DOCKED: ATOM     24  O23 DVT A 531     -26.625 -36.028 -31.646 +0.01 -0.01    -0.750 OA
DOCKED: ATOM     25  O16 DVT A 531     -24.912 -33.085 -30.108 +0.02 -0.08    -0.750 OA
DOCKED: ATOM     26  V5  DVT A 531     -23.763 -31.258 -29.155 +0.03 +0.12    +1.500 Zn
DOCKED: ATOM     27  O14 DVT A 531     -23.138 -29.947 -28.464 +0.01 -0.02    -0.750 OA
DOCKED: ATOM     28  O7  DVT A 531     -25.711 -30.898 -28.706 +0.02 -0.10    -0.750 OA
DOCKED: ATOM     29  V2  DVT A 531     -26.690 -32.114 -29.364 +0.04 +0.25    +1.500 Zn
DOCKED: ATOM     30  O1  DVT A 531     -28.258 -31.731 -28.898 +0.02 -0.10    -0.750 OA
DOCKED: ATOM     31  O17 DVT A 531     -26.076 -33.483 -32.389 +0.02 -0.23    -0.750 OA
DOCKED: ATOM     32  V4  DVT A 531     -24.889 -31.924 -31.991 +0.12 +0.80    +1.500 Zn
DOCKED: ATOM     33  O13 DVT A 531     -24.157 -30.660 -30.912 +0.02 -0.27    -0.750 OA
DOCKED: ATOM     34  O12 DVT A 531     -25.121 -31.014 -33.298 -0.41 -1.30    -0.750 OA
DOCKED: ATOM     35  O9  DVT A 531     -26.630 -31.486 -31.137 +0.01 -0.51    -0.750 OA
DOCKED: ATOM     36  V3  DVT A 531     -27.890 -32.714 -32.106 +0.09 +0.78    +1.500 Zn
DOCKED: ATOM     37  O3  DVT A 531     -29.358 -32.208 -31.166 +0.02 -0.24    -0.750 OA
DOCKED: ATOM     38  O10 DVT A 531     -28.090 -31.764 -33.406 -0.28 -1.16    -0.750 OA
DOCKED: ENDROOT
DOCKED: TORSDOF 0
DOCKED: TER
DOCKED: ENDMDL
________________________________________________________________________________


	BEGINNING GENETIC ALGORITHM DOCKING 45 of 50
Run: 45 Seed: 1424561663 82603202 [ Run 45 of 50 GA/GALS ]
Beginning LAMARCKIAN GENETIC ALGORITHM (LGA), with a maximum of 2500000 energy evaluations.

Final-Value: -2.099


	FINAL GENETIC ALGORITHM DOCKED STATE
	_______________________________________________


Detailed state:  trans -26.358 -32.826 -29.845 quatxyzw -0.541102 0.128605 -0.765988 0.322385 center 38.166 -0.098 117.777 ntor 0
State:	-26.358 -32.826 -29.845  -0.572  0.136 -0.809 142.386  

DOCKED: MODEL       45
DOCKED: USER    Run = 45
DOCKED: USER    DPF = blind_docking.dpf
DOCKED: USER  
DOCKED: USER    Estimated Free Energy of Binding    =   -2.10 kcal/mol  [=(1)+(2)+(3)-(4)]
DOCKED: USER    Estimated Inhibition Constant, Ki   =   28.96 mM (millimolar)  [Temperature = 298.15 K]
DOCKED: USER    
DOCKED: USER    (1) Final Intermolecular Energy     =   -2.10 kcal/mol
DOCKED: USER        vdW + Hbond + desolv Energy     =   +0.04 kcal/mol
DOCKED: USER        Electrostatic Energy            =   -2.13 kcal/mol
DOCKED: USER    (2) Final Total Internal Energy     =   +0.00 kcal/mol
DOCKED: USER    (3) Torsional Free Energy           =   +0.00 kcal/mol
DOCKED: USER    (4) Unbound System's Energy  [=(2)] =   +0.00 kcal/mol
DOCKED: USER    
DOCKED: USER    
DOCKED: USER    NEWDPF move ../ligands/decavanadate.pdbqt
DOCKED: USER    NEWDPF about 38.166447 -0.097658 117.776763
DOCKED: USER    NEWDPF tran0 -26.357756 -32.826029 -29.844849
DOCKED: USER    NEWDPF quaternion0 -0.541102 0.128605 -0.765988 0.322385
DOCKED: USER    NEWDPF axisangle0 -0.571622 0.135858 -0.809192 142.385556
DOCKED: USER    NEWDPF quat0 -0.571622 0.135858 -0.809192 142.385556
DOCKED: USER  keepresnum = 1 
DOCKED: USER  
DOCKED: USER                              x       y       z     vdW  Elec       q    Type
DOCKED: USER                           _______ _______ _______ _____ _____    ______ ____
DOCKED: ROOT
DOCKED: ATOM      1  O28 DVT A 531     -29.334 -36.557 -31.070 +0.00 +0.02    -0.750 OA
DOCKED: ATOM      2  V10 DVT A 531     -28.718 -35.165 -30.641 +0.01 +0.04    +1.500 Zn
DOCKED: ATOM      3  O18 DVT A 531     -28.701 -34.059 -32.125 +0.02 -0.13    -0.750 OA
DOCKED: ATOM      4  O15 DVT A 531     -30.149 -34.120 -30.134 +0.01 -0.03    -0.750 OA
DOCKED: ATOM      5  V1  DVT A 531     -29.733 -32.445 -29.506 +0.02 +0.15    +1.500 Zn
DOCKED: ATOM      6  O5  DVT A 531     -31.167 -31.760 -29.166 +0.02 -0.04    -0.750 OA
DOCKED: ATOM      7  O27 DVT A 531     -28.413 -35.473 -28.805 +0.00 +0.02    -0.750 OA
DOCKED: ATOM      8  V9  DVT A 531     -27.702 -34.069 -27.858 +0.01 -0.01    +1.500 Zn
DOCKED: ATOM      9  O2  DVT A 531     -27.603 -33.227 -29.924 +0.02 -0.10    -0.750 OA
DOCKED: ATOM     10  O4  DVT A 531     -29.251 -33.151 -27.830 +0.01 -0.00    -0.750 OA
DOCKED: ATOM     11  O8  DVT A 531     -26.684 -32.351 -27.657 +0.01 -0.02    -0.750 OA
DOCKED: ATOM     12  O26 DVT A 531     -27.506 -34.757 -26.421 +0.00 +0.04    -0.750 OA
DOCKED: ATOM     13  O24 DVT A 531     -25.877 -34.624 -28.513 +0.01 +0.01    -0.750 OA
DOCKED: ATOM     14  V7  DVT A 531     -24.865 -33.101 -27.633 +0.01 -0.01    +1.500 Zn
DOCKED: ATOM     15  O11 DVT A 531     -24.154 -31.468 -27.528 +0.01 -0.00    -0.750 OA
DOCKED: ATOM     16  O25 DVT A 531     -24.759 -33.980 -26.295 +0.00 +0.04    -0.750 OA
DOCKED: ATOM     17  O21 DVT A 531     -23.348 -33.763 -28.443 +0.00 +0.02    -0.750 OA
DOCKED: ATOM     18  V6  DVT A 531     -22.945 -33.199 -30.179 +0.02 +0.04    +1.500 Zn
DOCKED: ATOM     19  O19 DVT A 531     -23.469 -32.639 -31.896 +0.03 -0.12    -0.750 OA
DOCKED: ATOM     20  O22 DVT A 531     -21.541 -33.960 -30.317 +0.00 +0.03    -0.750 OA
DOCKED: ATOM     21  O6  DVT A 531     -22.503 -31.494 -29.618 +0.01 -0.02    -0.750 OA
DOCKED: ATOM     22  V8  DVT A 531     -25.802 -34.307 -30.393 +0.03 +0.11    +1.500 Zn
DOCKED: ATOM     23  O20 DVT A 531     -24.219 -34.728 -30.727 +0.01 -0.02    -0.750 OA
DOCKED: ATOM     24  O23 DVT A 531     -26.754 -35.617 -30.811 +0.01 -0.01    -0.750 OA
DOCKED: ATOM     25  O16 DVT A 531     -25.092 -32.438 -29.764 +0.02 -0.10    -0.750 OA
DOCKED: ATOM     26  V5  DVT A 531     -23.976 -30.466 -29.112 +0.04 +0.16    +1.500 Zn
DOCKED: ATOM     27  O14 DVT A 531     -23.374 -29.048 -28.648 +0.02 -0.04    -0.750 OA
DOCKED: ATOM     28  O7  DVT A 531     -25.940 -30.023 -28.853 +0.02 -0.14    -0.750 OA
DOCKED: ATOM     29  V2  DVT A 531     -26.896 -31.340 -29.323 +0.04 +0.33    +1.500 Zn
DOCKED: ATOM     30  O1  DVT A 531     -28.484 -30.872 -29.030 +0.02 -0.13    -0.750 OA
DOCKED: ATOM     31  O17 DVT A 531     -26.131 -33.261 -31.991 +0.02 -0.24    -0.750 OA
DOCKED: ATOM     32  V4  DVT A 531     -24.948 -31.658 -31.829 +0.12 +0.88    +1.500 Zn
DOCKED: ATOM     33  O13 DVT A 531     -24.262 -30.213 -30.971 +0.02 -0.32    -0.750 OA
DOCKED: ATOM     34  O12 DVT A 531     -25.094 -31.013 -33.297 -0.42 -1.28    -0.750 OA
DOCKED: ATOM     35  O9  DVT A 531     -26.729 -31.062 -31.176 +0.02 -0.63    -0.750 OA
DOCKED: ATOM     36  V3  DVT A 531     -27.948 -32.449 -31.965 +0.10 +0.87    +1.500 Zn
DOCKED: ATOM     37  O3  DVT A 531     -29.460 -31.771 -31.225 +0.02 -0.29    -0.750 OA
DOCKED: ATOM     38  O10 DVT A 531     -28.063 -31.764 -33.431 -0.26 -1.17    -0.750 OA
DOCKED: ENDROOT
DOCKED: TORSDOF 0
DOCKED: TER
DOCKED: ENDMDL
________________________________________________________________________________


	BEGINNING GENETIC ALGORITHM DOCKING 46 of 50
Run: 46 Seed: 981625935 1377872303 [ Run 46 of 50 GA/GALS ]
Beginning LAMARCKIAN GENETIC ALGORITHM (LGA), with a maximum of 2500000 energy evaluations.

Final-Value: -2.071


	FINAL GENETIC ALGORITHM DOCKED STATE
	_______________________________________________


Detailed state:  trans -26.753 -32.805 -30.036 quatxyzw -0.546178 0.587185 0.199161 -0.563239 center 38.166 -0.098 117.777 ntor 0
State:	-26.753 -32.805 -30.036  -0.661  0.711  0.241 -111.440  

DOCKED: MODEL       46
DOCKED: USER    Run = 46
DOCKED: USER    DPF = blind_docking.dpf
DOCKED: USER  
DOCKED: USER    Estimated Free Energy of Binding    =   -2.07 kcal/mol  [=(1)+(2)+(3)-(4)]
DOCKED: USER    Estimated Inhibition Constant, Ki   =   30.33 mM (millimolar)  [Temperature = 298.15 K]
DOCKED: USER    
DOCKED: USER    (1) Final Intermolecular Energy     =   -2.07 kcal/mol
DOCKED: USER        vdW + Hbond + desolv Energy     =   +0.25 kcal/mol
DOCKED: USER        Electrostatic Energy            =   -2.33 kcal/mol
DOCKED: USER    (2) Final Total Internal Energy     =   +0.00 kcal/mol
DOCKED: USER    (3) Torsional Free Energy           =   +0.00 kcal/mol
DOCKED: USER    (4) Unbound System's Energy  [=(2)] =   +0.00 kcal/mol
DOCKED: USER    
DOCKED: USER    
DOCKED: USER    NEWDPF move ../ligands/decavanadate.pdbqt
DOCKED: USER    NEWDPF about 38.166447 -0.097658 117.776763
DOCKED: USER    NEWDPF tran0 -26.753151 -32.805339 -30.035698
DOCKED: USER    NEWDPF quaternion0 -0.546178 0.587185 0.199161 -0.563239
DOCKED: USER    NEWDPF axisangle0 -0.660997 0.710625 0.241029 -111.439807
DOCKED: USER    NEWDPF quat0 -0.660997 0.710625 0.241029 -111.439807
DOCKED: USER  keepresnum = 1 
DOCKED: USER  
DOCKED: USER                              x       y       z     vdW  Elec       q    Type
DOCKED: USER                           _______ _______ _______ _____ _____    ______ ____
DOCKED: ROOT
DOCKED: ATOM      1  O28 DVT A 531     -31.385 -31.129 -29.972 +0.04 -0.07    -0.750 OA
DOCKED: ATOM      2  V10 DVT A 531     -30.076 -32.008 -30.072 +0.05 +0.22    +1.500 Zn
DOCKED: ATOM      3  O18 DVT A 531     -29.881 -32.937 -28.483 +0.01 -0.02    -0.750 OA
DOCKED: ATOM      4  O15 DVT A 531     -30.620 -33.644 -30.723 +0.01 -0.05    -0.750 OA
DOCKED: ATOM      5  V1  DVT A 531     -29.287 -34.871 -31.020 +0.02 +0.06    +1.500 Zn
DOCKED: ATOM      6  O5  DVT A 531     -30.054 -36.198 -31.558 +0.00 +0.02    -0.750 OA
DOCKED: ATOM      7  O27 DVT A 531     -29.518 -31.601 -31.827 -0.02 -0.40    -0.750 OA
DOCKED: ATOM      8  V9  DVT A 531     -27.995 -32.446 -32.408 +0.11 +1.03    +1.500 Zn
DOCKED: ATOM      9  O2  DVT A 531     -28.008 -33.102 -30.273 +0.02 -0.13    -0.750 OA
DOCKED: ATOM     10  O4  DVT A 531     -28.819 -34.030 -32.637 +0.02 -0.14    -0.750 OA
DOCKED: ATOM     11  O8  DVT A 531     -26.245 -33.396 -32.159 +0.02 -0.24    -0.750 OA
DOCKED: ATOM     12  O26 DVT A 531     -27.816 -31.765 -33.851 -0.10 -1.24    -0.750 OA
DOCKED: ATOM     13  O24 DVT A 531     -26.916 -31.026 -31.466 +0.03 -0.79    -0.750 OA
DOCKED: ATOM     14  V7  DVT A 531     -25.099 -31.817 -31.902 +0.12 +0.89    +1.500 Zn
DOCKED: ATOM     15  O11 DVT A 531     -23.670 -32.853 -31.636 +0.02 -0.11    -0.750 OA
DOCKED: ATOM     16  O25 DVT A 531     -25.115 -31.019 -33.294 -0.41 -1.29    -0.750 OA
DOCKED: ATOM     17  O21 DVT A 531     -24.368 -30.464 -30.889 +0.02 -0.31    -0.750 OA
DOCKED: ATOM     18  V6  DVT A 531     -24.183 -30.727 -29.047 +0.03 +0.16    +1.500 Zn
DOCKED: ATOM     19  O19 DVT A 531     -24.768 -31.464 -27.419 +0.01 -0.01    -0.750 OA
DOCKED: ATOM     20  O22 DVT A 531     -23.429 -29.352 -28.721 +0.02 -0.04    -0.750 OA
DOCKED: ATOM     21  O6  DVT A 531     -22.829 -31.966 -29.270 +0.01 -0.02    -0.750 OA
DOCKED: ATOM     22  V8  DVT A 531     -27.163 -31.245 -29.586 +0.05 +0.41    +1.500 Zn
DOCKED: ATOM     23  O20 DVT A 531     -26.139 -30.068 -28.988 +0.02 -0.16    -0.750 OA
DOCKED: ATOM     24  O23 DVT A 531     -28.710 -30.609 -29.556 +0.03 -0.19    -0.750 OA
DOCKED: ATOM     25  O16 DVT A 531     -25.488 -32.487 -29.797 +0.02 -0.12    -0.750 OA
DOCKED: ATOM     26  V5  DVT A 531     -23.418 -33.609 -29.931 +0.01 +0.03    +1.500 Zn
DOCKED: ATOM     27  O14 DVT A 531     -22.097 -34.519 -30.064 +0.00 +0.03    -0.750 OA
DOCKED: ATOM     28  O7  DVT A 531     -24.767 -35.002 -30.534 +0.01 -0.01    -0.750 OA
DOCKED: ATOM     29  V2  DVT A 531     -26.333 -34.360 -30.456 +0.03 +0.12    +1.500 Zn
DOCKED: ATOM     30  O1  DVT A 531     -27.348 -35.580 -31.009 +0.01 -0.02    -0.750 OA
DOCKED: ATOM     31  O17 DVT A 531     -27.314 -32.300 -27.967 +0.01 -0.03    -0.750 OA
DOCKED: ATOM     32  V4  DVT A 531     -25.494 -33.067 -27.662 +0.01 +0.00    +1.500 Zn
DOCKED: ATOM     33  O13 DVT A 531     -23.992 -33.960 -28.156 +0.00 +0.02    -0.750 OA
DOCKED: ATOM     34  O12 DVT A 531     -25.660 -33.685 -26.185 +0.00 +0.03    -0.750 OA
DOCKED: ATOM     35  O9  DVT A 531     -26.516 -34.499 -28.588 +0.01 -0.00    -0.750 OA
DOCKED: ATOM     36  V3  DVT A 531     -28.415 -33.931 -28.264 +0.01 +0.01    +1.500 Zn
DOCKED: ATOM     37  O3  DVT A 531     -29.152 -35.296 -29.208 +0.00 +0.01    -0.750 OA
DOCKED: ATOM     38  O10 DVT A 531     -28.535 -34.567 -26.777 +0.00 +0.03    -0.750 OA
DOCKED: ENDROOT
DOCKED: TORSDOF 0
DOCKED: TER
DOCKED: ENDMDL
________________________________________________________________________________


	BEGINNING GENETIC ALGORITHM DOCKING 47 of 50
Run: 47 Seed: 1126317225 609309880 [ Run 47 of 50 GA/GALS ]
Beginning LAMARCKIAN GENETIC ALGORITHM (LGA), with a maximum of 2500000 energy evaluations.

Final-Value: -2.094


	FINAL GENETIC ALGORITHM DOCKED STATE
	_______________________________________________


Detailed state:  trans -26.213 -32.561 -29.704 quatxyzw -0.546927 0.637897 0.221024 -0.495083 center 38.166 -0.098 117.777 ntor 0
State:	-26.213 -32.561 -29.704  -0.629  0.734  0.254 -120.650  

DOCKED: MODEL       47
DOCKED: USER    Run = 47
DOCKED: USER    DPF = blind_docking.dpf
DOCKED: USER  
DOCKED: USER    Estimated Free Energy of Binding    =   -2.09 kcal/mol  [=(1)+(2)+(3)-(4)]
DOCKED: USER    Estimated Inhibition Constant, Ki   =   29.18 mM (millimolar)  [Temperature = 298.15 K]
DOCKED: USER    
DOCKED: USER    (1) Final Intermolecular Energy     =   -2.09 kcal/mol
DOCKED: USER        vdW + Hbond + desolv Energy     =   +0.14 kcal/mol
DOCKED: USER        Electrostatic Energy            =   -2.24 kcal/mol
DOCKED: USER    (2) Final Total Internal Energy     =   +0.00 kcal/mol
DOCKED: USER    (3) Torsional Free Energy           =   +0.00 kcal/mol
DOCKED: USER    (4) Unbound System's Energy  [=(2)] =   +0.00 kcal/mol
DOCKED: USER    
DOCKED: USER    
DOCKED: USER    NEWDPF move ../ligands/decavanadate.pdbqt
DOCKED: USER    NEWDPF about 38.166447 -0.097658 117.776763
DOCKED: USER    NEWDPF tran0 -26.212781 -32.560591 -29.703538
DOCKED: USER    NEWDPF quaternion0 -0.546927 0.637897 0.221024 -0.495083
DOCKED: USER    NEWDPF axisangle0 -0.629487 0.734189 0.254388 -120.649570
DOCKED: USER    NEWDPF quat0 -0.629487 0.734189 0.254388 -120.649570
DOCKED: USER  keepresnum = 1 
DOCKED: USER  
DOCKED: USER                              x       y       z     vdW  Elec       q    Type
DOCKED: USER                           _______ _______ _______ _____ _____    ______ ____
DOCKED: ROOT
DOCKED: ATOM      1  O28 DVT A 531     -30.780 -30.845 -29.017 +0.02 -0.06    -0.750 OA
DOCKED: ATOM      2  V10 DVT A 531     -29.501 -31.740 -29.263 +0.03 +0.18    +1.500 Zn
DOCKED: ATOM      3  O18 DVT A 531     -29.051 -32.559 -27.665 +0.01 -0.01    -0.750 OA
DOCKED: ATOM      4  O15 DVT A 531     -30.138 -33.412 -29.703 +0.01 -0.04    -0.750 OA
DOCKED: ATOM      5  V1  DVT A 531     -28.865 -34.668 -30.124 +0.01 +0.05    +1.500 Zn
DOCKED: ATOM      6  O5  DVT A 531     -29.705 -36.023 -30.438 +0.00 +0.02    -0.750 OA
DOCKED: ATOM      7  O27 DVT A 531     -29.233 -31.460 -31.109 +0.02 -0.34    -0.750 OA
DOCKED: ATOM      8  V9  DVT A 531     -27.820 -32.356 -31.866 +0.09 +0.91    +1.500 Zn
DOCKED: ATOM      9  O2  DVT A 531     -27.488 -32.862 -29.716 +0.02 -0.11    -0.750 OA
DOCKED: ATOM     10  O4  DVT A 531     -28.665 -33.945 -31.848 +0.02 -0.13    -0.750 OA
DOCKED: ATOM     11  O8  DVT A 531     -26.050 -33.302 -31.835 +0.02 -0.22    -0.750 OA
DOCKED: ATOM     12  O26 DVT A 531     -27.877 -31.779 -33.363 -0.18 -1.19    -0.750 OA
DOCKED: ATOM     13  O24 DVT A 531     -26.607 -30.883 -31.210 +0.03 -0.69    -0.750 OA
DOCKED: ATOM     14  V7  DVT A 531     -24.882 -31.718 -31.875 +0.13 +0.84    +1.500 Zn
DOCKED: ATOM     15  O11 DVT A 531     -23.426 -32.745 -31.770 +0.03 -0.11    -0.750 OA
DOCKED: ATOM     16  O25 DVT A 531     -25.123 -31.019 -33.298 -0.41 -1.30    -0.750 OA
DOCKED: ATOM     17  O21 DVT A 531     -24.001 -30.304 -31.089 +0.02 -0.29    -0.750 OA
DOCKED: ATOM     18  V6  DVT A 531     -23.524 -30.441 -29.287 +0.03 +0.14    +1.500 Zn
DOCKED: ATOM     19  O19 DVT A 531     -23.838 -31.058 -27.538 +0.01 -0.00    -0.750 OA
DOCKED: ATOM     20  O22 DVT A 531     -22.731 -29.052 -29.182 +0.02 -0.03    -0.750 OA
DOCKED: ATOM     21  O6  DVT A 531     -22.219 -31.703 -29.636 +0.01 -0.01    -0.750 OA
DOCKED: ATOM     22  V8  DVT A 531     -26.550 -30.970 -29.304 +0.05 +0.35    +1.500 Zn
DOCKED: ATOM     23  O20 DVT A 531     -25.446 -29.762 -28.961 +0.03 -0.14    -0.750 OA
DOCKED: ATOM     24  O23 DVT A 531     -28.073 -30.320 -29.072 +0.02 -0.16    -0.750 OA
DOCKED: ATOM     25  O16 DVT A 531     -24.927 -32.237 -29.693 +0.02 -0.10    -0.750 OA
DOCKED: ATOM     26  V5  DVT A 531     -22.901 -33.383 -30.078 +0.01 +0.02    +1.500 Zn
DOCKED: ATOM     27  O14 DVT A 531     -21.617 -34.310 -30.357 +0.00 +0.03    -0.750 OA
DOCKED: ATOM     28  O7  DVT A 531     -24.326 -34.802 -30.358 +0.01 -0.01    -0.750 OA
DOCKED: ATOM     29  V2  DVT A 531     -25.861 -34.144 -30.076 +0.02 +0.10    +1.500 Zn
DOCKED: ATOM     30  O1  DVT A 531     -26.948 -35.391 -30.373 +0.01 -0.01    -0.750 OA
DOCKED: ATOM     31  O17 DVT A 531     -26.437 -31.908 -27.613 +0.01 -0.02    -0.750 OA
DOCKED: ATOM     32  V4  DVT A 531     -24.589 -32.668 -27.549 +0.01 -0.01    +1.500 Zn
DOCKED: ATOM     33  O13 DVT A 531     -23.183 -33.605 -28.214 +0.00 +0.02    -0.750 OA
DOCKED: ATOM     34  O12 DVT A 531     -24.514 -33.180 -26.025 +0.00 +0.04    -0.750 OA
DOCKED: ATOM     35  O9  DVT A 531     -25.742 -34.152 -28.198 +0.01 +0.00    -0.750 OA
DOCKED: ATOM     36  V3  DVT A 531     -27.566 -33.547 -27.615 +0.01 -0.00    +1.500 Zn
DOCKED: ATOM     37  O3  DVT A 531     -28.441 -34.968 -28.330 +0.00 +0.01    -0.750 OA
DOCKED: ATOM     38  O10 DVT A 531     -27.444 -34.078 -26.087 +0.00 +0.03    -0.750 OA
DOCKED: ENDROOT
DOCKED: TORSDOF 0
DOCKED: TER
DOCKED: ENDMDL
________________________________________________________________________________


	BEGINNING GENETIC ALGORITHM DOCKING 48 of 50
Run: 48 Seed: 1949795294 1658317135 [ Run 48 of 50 GA/GALS ]
Beginning LAMARCKIAN GENETIC ALGORITHM (LGA), with a maximum of 2500000 energy evaluations.

Final-Value: -2.060


	FINAL GENETIC ALGORITHM DOCKED STATE
	_______________________________________________


Detailed state:  trans -26.862 -33.629 -30.071 quatxyzw 0.588587 -0.264087 0.709382 -0.283904 center 38.166 -0.098 117.777 ntor 0
State:	-26.862 -33.629 -30.071   0.614 -0.275  0.740 -147.013  

DOCKED: MODEL       48
DOCKED: USER    Run = 48
DOCKED: USER    DPF = blind_docking.dpf
DOCKED: USER  
DOCKED: USER    Estimated Free Energy of Binding    =   -2.06 kcal/mol  [=(1)+(2)+(3)-(4)]
DOCKED: USER    Estimated Inhibition Constant, Ki   =   30.88 mM (millimolar)  [Temperature = 298.15 K]
DOCKED: USER    
DOCKED: USER    (1) Final Intermolecular Energy     =   -2.06 kcal/mol
DOCKED: USER        vdW + Hbond + desolv Energy     =   +0.21 kcal/mol
DOCKED: USER        Electrostatic Energy            =   -2.27 kcal/mol
DOCKED: USER    (2) Final Total Internal Energy     =   +0.00 kcal/mol
DOCKED: USER    (3) Torsional Free Energy           =   +0.00 kcal/mol
DOCKED: USER    (4) Unbound System's Energy  [=(2)] =   +0.00 kcal/mol
DOCKED: USER    
DOCKED: USER    
DOCKED: USER    NEWDPF move ../ligands/decavanadate.pdbqt
DOCKED: USER    NEWDPF about 38.166447 -0.097658 117.776763
DOCKED: USER    NEWDPF tran0 -26.862203 -33.628988 -30.071286
DOCKED: USER    NEWDPF quaternion0 0.588587 -0.264087 0.709382 -0.283904
DOCKED: USER    NEWDPF axisangle0 0.613845 -0.275420 0.739823 -147.013285
DOCKED: USER    NEWDPF quat0 0.613845 -0.275420 0.739823 -147.013285
DOCKED: USER  keepresnum = 1 
DOCKED: USER  
DOCKED: USER                              x       y       z     vdW  Elec       q    Type
DOCKED: USER                           _______ _______ _______ _____ _____    ______ ____
DOCKED: ROOT
DOCKED: ATOM      1  O28 DVT A 531     -30.274 -36.503 -32.162 +0.00 +0.02    -0.750 OA
DOCKED: ATOM      2  V10 DVT A 531     -29.493 -35.371 -31.383 +0.01 +0.03    +1.500 Zn
DOCKED: ATOM      3  O18 DVT A 531     -29.377 -33.887 -32.483 +0.02 -0.13    -0.750 OA
DOCKED: ATOM      4  O15 DVT A 531     -30.783 -34.376 -30.521 +0.01 -0.01    -0.750 OA
DOCKED: ATOM      5  V1  DVT A 531     -30.164 -33.012 -29.459 +0.02 +0.08    +1.500 Zn
DOCKED: ATOM      6  O5  DVT A 531     -31.501 -32.309 -28.861 +0.01 -0.02    -0.750 OA
DOCKED: ATOM      7  O27 DVT A 531     -29.189 -36.233 -29.733 +0.00 +0.02    -0.750 OA
DOCKED: ATOM      8  V9  DVT A 531     -28.302 -35.251 -28.460 +0.00 -0.03    +1.500 Zn
DOCKED: ATOM      9  O2  DVT A 531     -28.147 -33.856 -30.197 +0.02 -0.07    -0.750 OA
DOCKED: ATOM     10  O4  DVT A 531     -29.733 -34.223 -28.086 +0.00 +0.01    -0.750 OA
DOCKED: ATOM     11  O8  DVT A 531     -27.088 -33.784 -27.826 +0.01 +0.00    -0.750 OA
DOCKED: ATOM     12  O26 DVT A 531     -28.159 -36.346 -27.295 +0.00 +0.04    -0.750 OA
DOCKED: ATOM     13  O24 DVT A 531     -26.567 -35.778 -29.342 +0.00 +0.01    -0.750 OA
DOCKED: ATOM     14  V7  DVT A 531     -25.368 -34.695 -28.115 +0.00 -0.03    +1.500 Zn
DOCKED: ATOM     15  O11 DVT A 531     -24.470 -33.248 -27.580 +0.00 +0.01    -0.750 OA
DOCKED: ATOM     16  O25 DVT A 531     -25.338 -35.933 -27.095 +0.00 +0.04    -0.750 OA
DOCKED: ATOM     17  O21 DVT A 531     -23.954 -35.246 -29.160 +0.00 +0.02    -0.750 OA
DOCKED: ATOM     18  V6  DVT A 531     -23.523 -34.244 -30.678 +0.02 +0.03    +1.500 Zn
DOCKED: ATOM     19  O19 DVT A 531     -24.012 -33.155 -32.130 +0.03 -0.13    -0.750 OA
DOCKED: ATOM     20  O22 DVT A 531     -22.220 -35.075 -31.104 +0.00 +0.02    -0.750 OA
DOCKED: ATOM     21  O6  DVT A 531     -22.875 -32.834 -29.673 +0.01 -0.01    -0.750 OA
DOCKED: ATOM     22  V8  DVT A 531     -26.492 -34.934 -31.052 +0.02 +0.09    +1.500 Zn
DOCKED: ATOM     23  O20 DVT A 531     -24.976 -35.403 -31.576 +0.01 -0.02    -0.750 OA
DOCKED: ATOM     24  O23 DVT A 531     -27.599 -35.957 -31.780 +0.01 -0.01    -0.750 OA
DOCKED: ATOM     25  O16 DVT A 531     -25.559 -33.417 -29.949 +0.02 -0.08    -0.750 OA
DOCKED: ATOM     26  V5  DVT A 531     -24.208 -31.851 -28.815 +0.02 +0.09    +1.500 Zn
DOCKED: ATOM     27  O14 DVT A 531     -23.437 -30.702 -27.994 +0.01 -0.01    -0.750 OA
DOCKED: ATOM     28  O7  DVT A 531     -26.103 -31.299 -28.336 +0.02 -0.07    -0.750 OA
DOCKED: ATOM     29  V2  DVT A 531     -27.215 -32.313 -29.115 +0.03 +0.20    +1.500 Zn
DOCKED: ATOM     30  O1  DVT A 531     -28.731 -31.787 -28.616 +0.01 -0.07    -0.750 OA
DOCKED: ATOM     31  O17 DVT A 531     -26.730 -33.438 -32.261 +0.02 -0.25    -0.750 OA
DOCKED: ATOM     32  V4  DVT A 531     -25.366 -32.086 -31.706 +0.10 +0.77    +1.500 Zn
DOCKED: ATOM     33  O13 DVT A 531     -24.501 -31.036 -30.504 +0.02 -0.23    -0.750 OA
DOCKED: ATOM     34  O12 DVT A 531     -25.466 -31.028 -32.915 -0.10 -1.41    -0.750 OA
DOCKED: ATOM     35  O9  DVT A 531     -27.053 -31.524 -30.815 +0.02 -0.42    -0.750 OA
DOCKED: ATOM     36  V3  DVT A 531     -28.440 -32.483 -31.906 +0.09 +0.75    +1.500 Zn
DOCKED: ATOM     37  O3  DVT A 531     -29.848 -31.896 -30.922 +0.03 -0.20    -0.750 OA
DOCKED: ATOM     38  O10 DVT A 531     -28.504 -31.390 -33.103 -0.30 -1.33    -0.750 OA
DOCKED: ENDROOT
DOCKED: TORSDOF 0
DOCKED: TER
DOCKED: ENDMDL
________________________________________________________________________________


	BEGINNING GENETIC ALGORITHM DOCKING 49 of 50
Run: 49 Seed: 1150372142 362219408 [ Run 49 of 50 GA/GALS ]
Beginning LAMARCKIAN GENETIC ALGORITHM (LGA), with a maximum of 2500000 energy evaluations.

Final-Value: -2.060


	FINAL GENETIC ALGORITHM DOCKED STATE
	_______________________________________________


Detailed state:  trans -26.760 -33.773 -30.166 quatxyzw 0.607113 -0.276637 0.693188 -0.272720 center 38.166 -0.098 117.777 ntor 0
State:	-26.760 -33.773 -30.166   0.631 -0.288  0.720 -148.348  

DOCKED: MODEL       49
DOCKED: USER    Run = 49
DOCKED: USER    DPF = blind_docking.dpf
DOCKED: USER  
DOCKED: USER    Estimated Free Energy of Binding    =   -2.06 kcal/mol  [=(1)+(2)+(3)-(4)]
DOCKED: USER    Estimated Inhibition Constant, Ki   =   30.89 mM (millimolar)  [Temperature = 298.15 K]
DOCKED: USER    
DOCKED: USER    (1) Final Intermolecular Energy     =   -2.06 kcal/mol
DOCKED: USER        vdW + Hbond + desolv Energy     =   +0.16 kcal/mol
DOCKED: USER        Electrostatic Energy            =   -2.22 kcal/mol
DOCKED: USER    (2) Final Total Internal Energy     =   +0.00 kcal/mol
DOCKED: USER    (3) Torsional Free Energy           =   +0.00 kcal/mol
DOCKED: USER    (4) Unbound System's Energy  [=(2)] =   +0.00 kcal/mol
DOCKED: USER    
DOCKED: USER    
DOCKED: USER    NEWDPF move ../ligands/decavanadate.pdbqt
DOCKED: USER    NEWDPF about 38.166447 -0.097658 117.776763
DOCKED: USER    NEWDPF tran0 -26.759901 -33.773242 -30.165893
DOCKED: USER    NEWDPF quaternion0 0.607113 -0.276637 0.693188 -0.272720
DOCKED: USER    NEWDPF axisangle0 0.631033 -0.287537 0.720500 -148.347585
DOCKED: USER    NEWDPF quat0 0.631033 -0.287537 0.720500 -148.347585
DOCKED: USER  keepresnum = 1 
DOCKED: USER  
DOCKED: USER                              x       y       z     vdW  Elec       q    Type
DOCKED: USER                           _______ _______ _______ _____ _____    ______ ____
DOCKED: ROOT
DOCKED: ATOM      1  O28 DVT A 531     -30.235 -36.548 -32.286 +0.00 +0.02    -0.750 OA
DOCKED: ATOM      2  V10 DVT A 531     -29.430 -35.454 -31.478 +0.01 +0.02    +1.500 Zn
DOCKED: ATOM      3  O18 DVT A 531     -29.351 -33.916 -32.505 +0.02 -0.13    -0.750 OA
DOCKED: ATOM      4  O15 DVT A 531     -30.692 -34.507 -30.526 +0.01 -0.01    -0.750 OA
DOCKED: ATOM      5  V1  DVT A 531     -30.040 -33.196 -29.417 +0.01 +0.08    +1.500 Zn
DOCKED: ATOM      6  O5  DVT A 531     -31.358 -32.527 -28.742 +0.01 -0.01    -0.750 OA
DOCKED: ATOM      7  O27 DVT A 531     -29.072 -36.396 -29.883 +0.00 +0.02    -0.750 OA
DOCKED: ATOM      8  V9  DVT A 531     -28.146 -35.477 -28.592 +0.00 -0.04    +1.500 Zn
DOCKED: ATOM      9  O2  DVT A 531     -28.048 -33.997 -30.262 +0.02 -0.07    -0.750 OA
DOCKED: ATOM     10  O4  DVT A 531     -29.564 -34.473 -28.122 +0.00 +0.01    -0.750 OA
DOCKED: ATOM     11  O8  DVT A 531     -26.913 -34.041 -27.925 +0.01 +0.00    -0.750 OA
DOCKED: ATOM     12  O26 DVT A 531     -27.963 -36.629 -27.488 +0.00 +0.04    -0.750 OA
DOCKED: ATOM     13  O24 DVT A 531     -26.439 -35.956 -29.555 +0.00 +0.02    -0.750 OA
DOCKED: ATOM     14  V7  DVT A 531     -25.202 -34.932 -28.315 +0.00 -0.04    +1.500 Zn
DOCKED: ATOM     15  O11 DVT A 531     -24.289 -33.511 -27.737 +0.00 +0.01    -0.750 OA
DOCKED: ATOM     16  O25 DVT A 531     -25.138 -36.219 -27.359 +0.00 +0.04    -0.750 OA
DOCKED: ATOM     17  O21 DVT A 531     -23.823 -35.427 -29.431 +0.00 +0.02    -0.750 OA
DOCKED: ATOM     18  V6  DVT A 531     -23.441 -34.349 -30.910 +0.02 +0.03    +1.500 Zn
DOCKED: ATOM     19  O19 DVT A 531     -23.978 -33.190 -32.289 +0.03 -0.13    -0.750 OA
DOCKED: ATOM     20  O22 DVT A 531     -22.152 -35.154 -31.419 +0.00 +0.03    -0.750 OA
DOCKED: ATOM     21  O6  DVT A 531     -22.763 -32.990 -29.857 +0.01 -0.01    -0.750 OA
DOCKED: ATOM     22  V8  DVT A 531     -26.421 -35.027 -31.223 +0.02 +0.09    +1.500 Zn
DOCKED: ATOM     23  O20 DVT A 531     -24.922 -35.465 -31.818 +0.01 -0.02    -0.750 OA
DOCKED: ATOM     24  O23 DVT A 531     -27.549 -36.015 -31.964 +0.01 -0.01    -0.750 OA
DOCKED: ATOM     25  O16 DVT A 531     -25.453 -33.564 -30.075 +0.02 -0.07    -0.750 OA
DOCKED: ATOM     26  V5  DVT A 531     -24.068 -32.053 -28.909 +0.02 +0.08    +1.500 Zn
DOCKED: ATOM     27  O14 DVT A 531     -23.272 -30.945 -28.056 +0.01 -0.01    -0.750 OA
DOCKED: ATOM     28  O7  DVT A 531     -25.947 -31.531 -28.342 +0.02 -0.06    -0.750 OA
DOCKED: ATOM     29  V2  DVT A 531     -27.082 -32.508 -29.134 +0.03 +0.18    +1.500 Zn
DOCKED: ATOM     30  O1  DVT A 531     -28.582 -32.011 -28.561 +0.01 -0.06    -0.750 OA
DOCKED: ATOM     31  O17 DVT A 531     -26.699 -33.473 -32.346 +0.02 -0.25    -0.750 OA
DOCKED: ATOM     32  V4  DVT A 531     -25.319 -32.147 -31.768 +0.10 +0.75    +1.500 Zn
DOCKED: ATOM     33  O13 DVT A 531     -24.416 -31.156 -30.544 +0.02 -0.22    -0.750 OA
DOCKED: ATOM     34  O12 DVT A 531     -25.458 -31.030 -32.919 -0.10 -1.40    -0.750 OA
DOCKED: ATOM     35  O9  DVT A 531     -26.976 -31.634 -30.797 +0.01 -0.39    -0.750 OA
DOCKED: ATOM     36  V3  DVT A 531     -28.397 -32.541 -31.889 +0.09 +0.73    +1.500 Zn
DOCKED: ATOM     37  O3  DVT A 531     -29.773 -32.008 -30.833 +0.03 -0.19    -0.750 OA
DOCKED: ATOM     38  O10 DVT A 531     -28.500 -31.390 -33.028 -0.33 -1.29    -0.750 OA
DOCKED: ENDROOT
DOCKED: TORSDOF 0
DOCKED: TER
DOCKED: ENDMDL
________________________________________________________________________________


	BEGINNING GENETIC ALGORITHM DOCKING 50 of 50
Run: 50 Seed: 510949700 819020867 [ Run 50 of 50 GA/GALS ]
Beginning LAMARCKIAN GENETIC ALGORITHM (LGA), with a maximum of 2500000 energy evaluations.

Final-Value: -2.096


	FINAL GENETIC ALGORITHM DOCKED STATE
	_______________________________________________


Detailed state:  trans -26.107 -32.741 -29.756 quatxyzw -0.529391 0.640401 0.245731 -0.499247 center 38.166 -0.098 117.777 ntor 0
State:	-26.107 -32.741 -29.756  -0.611  0.739  0.284 -120.100  

DOCKED: MODEL       50
DOCKED: USER    Run = 50
DOCKED: USER    DPF = blind_docking.dpf
DOCKED: USER  
DOCKED: USER    Estimated Free Energy of Binding    =   -2.10 kcal/mol  [=(1)+(2)+(3)-(4)]
DOCKED: USER    Estimated Inhibition Constant, Ki   =   29.10 mM (millimolar)  [Temperature = 298.15 K]
DOCKED: USER    
DOCKED: USER    (1) Final Intermolecular Energy     =   -2.10 kcal/mol
DOCKED: USER        vdW + Hbond + desolv Energy     =   +0.11 kcal/mol
DOCKED: USER        Electrostatic Energy            =   -2.21 kcal/mol
DOCKED: USER    (2) Final Total Internal Energy     =   +0.00 kcal/mol
DOCKED: USER    (3) Torsional Free Energy           =   +0.00 kcal/mol
DOCKED: USER    (4) Unbound System's Energy  [=(2)] =   +0.00 kcal/mol
DOCKED: USER    
DOCKED: USER    
DOCKED: USER    NEWDPF move ../ligands/decavanadate.pdbqt
DOCKED: USER    NEWDPF about 38.166447 -0.097658 117.776763
DOCKED: USER    NEWDPF tran0 -26.106803 -32.740900 -29.755939
DOCKED: USER    NEWDPF quaternion0 -0.529391 0.640401 0.245731 -0.499247
DOCKED: USER    NEWDPF axisangle0 -0.610982 0.739101 0.283603 -120.099547
DOCKED: USER    NEWDPF quat0 -0.610982 0.739101 0.283603 -120.099547
DOCKED: USER  keepresnum = 1 
DOCKED: USER  
DOCKED: USER                              x       y       z     vdW  Elec       q    Type
DOCKED: USER                           _______ _______ _______ _____ _____    ______ ____
DOCKED: ROOT
DOCKED: ATOM      1  O28 DVT A 531     -30.644 -31.056 -28.835 +0.02 -0.05    -0.750 OA
DOCKED: ATOM      2  V10 DVT A 531     -29.376 -31.939 -29.168 +0.02 +0.17    +1.500 Zn
DOCKED: ATOM      3  O18 DVT A 531     -28.878 -32.841 -27.630 +0.01 -0.01    -0.750 OA
DOCKED: ATOM      4  O15 DVT A 531     -30.033 -33.585 -29.675 +0.01 -0.03    -0.750 OA
DOCKED: ATOM      5  V1  DVT A 531     -28.778 -34.819 -30.200 +0.01 +0.05    +1.500 Zn
DOCKED: ATOM      6  O5  DVT A 531     -29.632 -36.155 -30.558 +0.00 +0.02    -0.750 OA
DOCKED: ATOM      7  O27 DVT A 531     -29.166 -31.563 -31.005 +0.02 -0.31    -0.750 OA
DOCKED: ATOM      8  V9  DVT A 531     -27.781 -32.421 -31.852 +0.09 +0.87    +1.500 Zn
DOCKED: ATOM      9  O2  DVT A 531     -27.383 -33.040 -29.743 +0.02 -0.10    -0.750 OA
DOCKED: ATOM     10  O4  DVT A 531     -28.631 -34.008 -31.891 +0.02 -0.12    -0.750 OA
DOCKED: ATOM     11  O8  DVT A 531     -26.015 -33.370 -31.927 +0.02 -0.22    -0.750 OA
DOCKED: ATOM     12  O26 DVT A 531     -27.884 -31.766 -33.314 -0.18 -1.19    -0.750 OA
DOCKED: ATOM     13  O24 DVT A 531     -26.544 -30.986 -31.159 +0.02 -0.63    -0.750 OA
DOCKED: ATOM     14  V7  DVT A 531     -24.843 -31.788 -31.921 +0.13 +0.81    +1.500 Zn
DOCKED: ATOM     15  O11 DVT A 531     -23.388 -32.821 -31.917 +0.03 -0.10    -0.750 OA
DOCKED: ATOM     16  O25 DVT A 531     -25.127 -31.015 -33.298 -0.40 -1.31    -0.750 OA
DOCKED: ATOM     17  O21 DVT A 531     -23.933 -30.419 -31.091 +0.03 -0.27    -0.750 OA
DOCKED: ATOM     18  V6  DVT A 531     -23.399 -30.650 -29.315 +0.03 +0.12    +1.500 Zn
DOCKED: ATOM     19  O19 DVT A 531     -23.659 -31.358 -27.592 +0.01 +0.00    -0.750 OA
DOCKED: ATOM     20  O22 DVT A 531     -22.598 -29.270 -29.164 +0.02 -0.03    -0.750 OA
DOCKED: ATOM     21  O6  DVT A 531     -22.110 -31.895 -29.771 +0.01 -0.01    -0.750 OA
DOCKED: ATOM     22  V8  DVT A 531     -26.425 -31.173 -29.263 +0.04 +0.32    +1.500 Zn
DOCKED: ATOM     23  O20 DVT A 531     -25.308 -29.987 -28.893 +0.02 -0.12    -0.750 OA
DOCKED: ATOM     24  O23 DVT A 531     -27.939 -30.534 -28.949 +0.02 -0.15    -0.750 OA
DOCKED: ATOM     25  O16 DVT A 531     -24.820 -32.421 -29.769 +0.02 -0.10    -0.750 OA
DOCKED: ATOM     26  V5  DVT A 531     -22.811 -33.548 -30.278 +0.01 +0.02    +1.500 Zn
DOCKED: ATOM     27  O14 DVT A 531     -21.540 -34.462 -30.647 +0.00 +0.03    -0.750 OA
DOCKED: ATOM     28  O7  DVT A 531     -24.249 -34.949 -30.587 +0.01 -0.01    -0.750 OA
DOCKED: ATOM     29  V2  DVT A 531     -25.772 -34.304 -30.221 +0.02 +0.09    +1.500 Zn
DOCKED: ATOM     30  O1  DVT A 531     -26.872 -35.532 -30.549 +0.01 -0.01    -0.750 OA
DOCKED: ATOM     31  O17 DVT A 531     -26.262 -32.199 -27.628 +0.01 -0.02    -0.750 OA
DOCKED: ATOM     32  V4  DVT A 531     -24.415 -32.963 -27.663 +0.01 -0.02    +1.500 Zn
DOCKED: ATOM     33  O13 DVT A 531     -23.035 -33.867 -28.421 +0.00 +0.02    -0.750 OA
DOCKED: ATOM     34  O12 DVT A 531     -24.294 -33.555 -26.171 +0.00 +0.04    -0.750 OA
DOCKED: ATOM     35  O9  DVT A 531     -25.594 -34.410 -28.351 +0.01 +0.01    -0.750 OA
DOCKED: ATOM     36  V3  DVT A 531     -27.396 -33.833 -27.680 +0.01 -0.01    +1.500 Zn
DOCKED: ATOM     37  O3  DVT A 531     -28.298 -35.213 -28.440 +0.00 +0.02    -0.750 OA
DOCKED: ATOM     38  O10 DVT A 531     -27.227 -34.443 -26.186 +0.00 +0.04    -0.750 OA
DOCKED: ENDROOT
DOCKED: TORSDOF 0
DOCKED: TER
DOCKED: ENDMDL
________________________________________________________________________________

DPF> do_local_only 0

auto-centering ligand on root atoms: 38.166 -0.098 117.777
Furthest true ligand atom from "about" center is 4.972 Angstroms (maxrad).
Number of Local Search (LS) only dockings = 0 runs
Unbound model to be used is from file: "../grid/AD4.1_bound.dat".
>>> Closing the docking parameter file (DPF)...
This docking finished at:			6:54 28" p.m., 08/04/2026


________________________________________________________________________________

autodock4: Successful Completion on "TerminalXolotl"

Real= 4m 07.54s,  CPU= 3m 56.46s,  System= 1.35s
________________________________________________________________________________

