          AutoDock 4.2 Release 4.2.6   
         (C) 1989-2012 The Scripps Research Institute
        AutoDock comes with ABSOLUTELY NO WARRANTY.
        AutoDock is free software, and you are welcome
        to redistribute it under certain conditions;
        for details type 'autodock4 -C'

                     main.cc  $Revision: 1.213 $

                   Compiled on Dec 11 2024 at 15:52:35


This file was created at:			9:43 24" p.m., 08/04/2026
                   on host:		"TerminalXolotl"
Current Working Directory = "/mnt/c/Users/Me/Desktop/CANIFARMA/docking"

      ________________________________________________________________

                   SETTING UP DEFAULT PARAMETER LIBRARY
      ________________________________________________________________


Random number generator was seeded with values 6607, 1785901404.
Docking parameter file (DPF) used for this docking:		pocket_small.dpf
DPF> parameter_file ../grid/AD4.1_bound.dat

Using read_parameter_library() to try to open and read "../grid/AD4.1_bound.dat".

DPF> ligand_types Zn OA

DPF> fld ../grid/pblue.maps.fld

Opening Grid Map Dimensions file:		../grid/pblue.maps.fld
Grid Point Spacing =				0.375 Angstroms

Even Number of User-specified Grid Points =	40 x-points
						40 y-points
						40 z-points

Coordinates of Central Grid Point of Maps =	(-38.789, -21.450, -45.132)
Macromolecule file used to create Grid Maps =	../receptor/4wo5_chainA.pdbqt
Grid Parameter file used to create Grid Maps =	pocket_small.gpf
Minimum coordinates in grid = (-46.289, -28.950, -52.632)
Maximum coordinates in grid = (-31.289, -13.950, -37.632)

DPF> map ../grid/pblue.Zn.map

autodock4: WARNING: Filename mismatch: "pblue.maps.fld" :: "../grid/pblue.maps.fld"
DPF> map ../grid/pblue.OA.map

autodock4: WARNING: Filename mismatch: "pblue.maps.fld" :: "../grid/pblue.maps.fld"
DPF> elecmap ../grid/pblue.e.map

autodock4: WARNING: Filename mismatch: "pblue.maps.fld" :: "../grid/pblue.maps.fld"
DPF> desolvmap ../grid/pblue.d.map

autodock4: WARNING: Filename mismatch: "pblue.maps.fld" :: "../grid/pblue.maps.fld"
DPF> move ../ligands/orthovanadate.pdbqt

1,4-interactions will be _ignored_ in the non-bonded internal energy calculation.

Ligand PDBQT file = "../ligands/orthovanadate.pdbqt"

INPUT LIGAND PDBQT FILE:
________________________

INPUT-LIGAND-PDBQT: ROOT
INPUT-LIGAND-PDBQT: ATOM      1  V1  VO4 A   1       0.000   0.000   0.000  1.00  0.00    +1.500 Zn
INPUT-LIGAND-PDBQT: ATOM      2  O1  VO4 A   1       1.010   1.010   1.010  1.00  0.00    -0.750 OA
INPUT-LIGAND-PDBQT: ATOM      3  O2  VO4 A   1       1.010  -1.010  -1.010  1.00  0.00    -0.750 OA
INPUT-LIGAND-PDBQT: ATOM      4  O3  VO4 A   1      -1.010   1.010  -1.010  1.00  0.00    -0.750 OA
INPUT-LIGAND-PDBQT: ATOM      5  O4  VO4 A   1      -1.010  -1.010   1.010  1.00  0.00    -0.750 OA
INPUT-LIGAND-PDBQT: ENDROOT
INPUT-LIGAND-PDBQT: TORSDOF 0
________________________________________________________________________________

Total charge on ligand                               =	-1.500 e

autodock4: *** Caution!  Non-integral total charge (-1.500 e) on ligand may indicate a problem... ***


*** No Rotatable Bonds detected in Small Molecule. ***

Number of atoms in ligand:  5

Number of non-hydrogen atoms in ligand:  5

Number of vibrational degrees of freedom of ligand:  9


Number of torsional degrees of freedom = 0
Estimated loss of torsional free energy upon binding = +0.0000 kcal/mol


DPF> tran0 random

Initial translation =			(-36.858, -28.329, -41.013) Angstroms
DPF> quaternion0 random

Each run will begin with a new, random initial orientation.
Initial quaternion,  (x,y,z,w) =	( -0.584, 0.059, -0.645, 0.489 ),
DPF> ndihe 0

autodock4: WARNING!  The "ndihe" command is no longer supported.  The number of torsions in the PDBQT file(s) is the number that will be used (i.e. 0)
DPF> torsdof 0

Number of torsional degrees of freedom = 0
Free energy coefficient for torsional degrees of freedom = 0.2983 as specified in parameter library "../grid/AD4.1_bound.dat".

Estimated loss of torsional free energy upon binding = +0.0000 kcal/mol

DPF> rmstol 2.0

Maximum RMS tolerance for conformational cluster analysis = 2.00 Angstroms
DPF> outlev 1

Output Level = 1  ADT-COMPATIBLE OUTPUT DURING DOCKING.
DPF> set_ga

DPF> set_sw1

Creating a new Local Search object using the Solis-Wets algorithm (SW1) with the current settings.

DPF> ga_pop_size 150

A population of 150 individuals will be used
DPF> ga_num_evals 250000

There will be at most 250000 function evaluations used.
DPF> ga_num_generations 27000

The GA will run for at most 27000 generations.
DPF> ga_elitism 1

The 1 best will be preserved each GA generation.
DPF> ga_mutation_rate 0.02

The mutation rate is 0.020000.
DPF> ga_crossover_rate 0.80

The crossover rate is 0.800000.
DPF> ga_window_size 10

The GA's selection window is 10 generations.
DPF> ga_run 50

auto-centering ligand on root atoms: 0.000 0.000 0.000
Furthest true ligand atom from "about" center is 1.749 Angstroms (maxrad).
Number of requested GA dockings = 50 runs
Unbound model to be used is from file: "../grid/AD4.1_bound.dat".

	BEGINNING GENETIC ALGORITHM DOCKING 1 of 50
Run: 1 Seed: 1561875986 1876961435 [ Run 1 of 50 GA/GALS ]
Beginning LAMARCKIAN GENETIC ALGORITHM (LGA), with a maximum of 250000 energy evaluations.

Final-Value: -1.486


	FINAL GENETIC ALGORITHM DOCKED STATE
	_______________________________________________


Detailed state:  trans -35.892 -20.075 -43.212 quatxyzw 0.739168 -0.584044 -0.319447 0.102359 center 0.000 0.000 0.000 ntor 0
State:	-35.892 -20.075 -43.212   0.743 -0.587 -0.321 168.250  

DOCKED: MODEL        1
DOCKED: USER    Run = 1
DOCKED: USER    DPF = pocket_small.dpf
DOCKED: USER  
DOCKED: USER    Estimated Free Energy of Binding    =   -1.49 kcal/mol  [=(1)+(2)+(3)-(4)]
DOCKED: USER    Estimated Inhibition Constant, Ki   =   81.41 mM (millimolar)  [Temperature = 298.15 K]
DOCKED: USER    
DOCKED: USER    (1) Final Intermolecular Energy     =   -1.49 kcal/mol
DOCKED: USER        vdW + Hbond + desolv Energy     =   -0.08 kcal/mol
DOCKED: USER        Electrostatic Energy            =   -1.40 kcal/mol
DOCKED: USER    (2) Final Total Internal Energy     =   +0.00 kcal/mol
DOCKED: USER    (3) Torsional Free Energy           =   +0.00 kcal/mol
DOCKED: USER    (4) Unbound System's Energy  [=(2)] =   +0.00 kcal/mol
DOCKED: USER    
DOCKED: USER    
DOCKED: USER    NEWDPF move ../ligands/orthovanadate.pdbqt
DOCKED: USER    NEWDPF about 0.000000 0.000000 0.000000
DOCKED: USER    NEWDPF tran0 -35.892135 -20.075228 -43.211674
DOCKED: USER    NEWDPF quaternion0 0.739168 -0.584044 -0.319447 0.102359
DOCKED: USER    NEWDPF axisangle0 0.743071 -0.587128 -0.321134 168.249898
DOCKED: USER    NEWDPF quat0 0.743071 -0.587128 -0.321134 168.249898
DOCKED: USER  keepresnum = 1 
DOCKED: USER  
DOCKED: USER                              x       y       z     vdW  Elec       q    Type
DOCKED: USER                           _______ _______ _______ _____ _____    ______ ____
DOCKED: ROOT
DOCKED: ATOM      1  V1  VO4 A   1     -35.892 -20.075 -43.212 +1.09 +0.80    +1.500 Zn
DOCKED: ATOM      2  O1  VO4 A   1     -37.072 -20.651 -44.368 -0.30 -1.16    -0.750 OA
DOCKED: ATOM      3  O2  VO4 A   1     -34.483 -21.111 -43.251 -0.58 -0.46    -0.750 OA
DOCKED: ATOM      4  O3  VO4 A   1     -36.589 -20.099 -41.607 +0.15 -0.15    -0.750 OA
DOCKED: ATOM      5  O4  VO4 A   1     -35.425 -18.440 -43.621 -0.45 -0.44    -0.750 OA
DOCKED: ENDROOT
DOCKED: TORSDOF 0
DOCKED: TER
DOCKED: ENDMDL
________________________________________________________________________________


	BEGINNING GENETIC ALGORITHM DOCKING 2 of 50
Run: 2 Seed: 1350146652 88894380 [ Run 2 of 50 GA/GALS ]
Beginning LAMARCKIAN GENETIC ALGORITHM (LGA), with a maximum of 250000 energy evaluations.

Final-Value: -1.501


	FINAL GENETIC ALGORITHM DOCKED STATE
	_______________________________________________


Detailed state:  trans -35.776 -20.117 -43.212 quatxyzw -0.559316 -0.758116 -0.094394 -0.321738 center 0.000 0.000 0.000 ntor 0
State:	-35.776 -20.117 -43.212  -0.591 -0.801 -0.100 -142.464  

DOCKED: MODEL        2
DOCKED: USER    Run = 2
DOCKED: USER    DPF = pocket_small.dpf
DOCKED: USER  
DOCKED: USER    Estimated Free Energy of Binding    =   -1.50 kcal/mol  [=(1)+(2)+(3)-(4)]
DOCKED: USER    Estimated Inhibition Constant, Ki   =   79.37 mM (millimolar)  [Temperature = 298.15 K]
DOCKED: USER    
DOCKED: USER    (1) Final Intermolecular Energy     =   -1.50 kcal/mol
DOCKED: USER        vdW + Hbond + desolv Energy     =   -0.14 kcal/mol
DOCKED: USER        Electrostatic Energy            =   -1.36 kcal/mol
DOCKED: USER    (2) Final Total Internal Energy     =   +0.00 kcal/mol
DOCKED: USER    (3) Torsional Free Energy           =   +0.00 kcal/mol
DOCKED: USER    (4) Unbound System's Energy  [=(2)] =   +0.00 kcal/mol
DOCKED: USER    
DOCKED: USER    
DOCKED: USER    NEWDPF move ../ligands/orthovanadate.pdbqt
DOCKED: USER    NEWDPF about 0.000000 0.000000 0.000000
DOCKED: USER    NEWDPF tran0 -35.776470 -20.116586 -43.212161
DOCKED: USER    NEWDPF quaternion0 -0.559316 -0.758116 -0.094394 -0.321738
DOCKED: USER    NEWDPF axisangle0 -0.590726 -0.800690 -0.099695 -142.463929
DOCKED: USER    NEWDPF quat0 -0.590726 -0.800690 -0.099695 -142.463929
DOCKED: USER  keepresnum = 1 
DOCKED: USER  
DOCKED: USER                              x       y       z     vdW  Elec       q    Type
DOCKED: USER                           _______ _______ _______ _____ _____    ______ ____
DOCKED: ROOT
DOCKED: ATOM      1  V1  VO4 A   1     -35.776 -20.117 -43.212 +1.09 +0.80    +1.500 Zn
DOCKED: ATOM      2  O1  VO4 A   1     -35.414 -18.453 -43.615 -0.44 -0.44    -0.750 OA
DOCKED: ATOM      3  O2  VO4 A   1     -36.477 -20.190 -41.611 +0.15 -0.15    -0.750 OA
DOCKED: ATOM      4  O3  VO4 A   1     -34.304 -21.060 -43.248 -0.58 -0.47    -0.750 OA
DOCKED: ATOM      5  O4  VO4 A   1     -36.911 -20.764 -44.375 -0.35 -1.10    -0.750 OA
DOCKED: ENDROOT
DOCKED: TORSDOF 0
DOCKED: TER
DOCKED: ENDMDL
________________________________________________________________________________


	BEGINNING GENETIC ALGORITHM DOCKING 3 of 50
Run: 3 Seed: 1663492048 1644898242 [ Run 3 of 50 GA/GALS ]
Beginning LAMARCKIAN GENETIC ALGORITHM (LGA), with a maximum of 250000 energy evaluations.

Final-Value: -1.488


	FINAL GENETIC ALGORITHM DOCKED STATE
	_______________________________________________


Detailed state:  trans -35.776 -20.120 -43.214 quatxyzw -0.756132 0.555968 0.330429 -0.099905 center 0.000 0.000 0.000 ntor 0
State:	-35.776 -20.120 -43.214  -0.760  0.559  0.332 -168.533  

DOCKED: MODEL        3
DOCKED: USER    Run = 3
DOCKED: USER    DPF = pocket_small.dpf
DOCKED: USER  
DOCKED: USER    Estimated Free Energy of Binding    =   -1.49 kcal/mol  [=(1)+(2)+(3)-(4)]
DOCKED: USER    Estimated Inhibition Constant, Ki   =   81.09 mM (millimolar)  [Temperature = 298.15 K]
DOCKED: USER    
DOCKED: USER    (1) Final Intermolecular Energy     =   -1.49 kcal/mol
DOCKED: USER        vdW + Hbond + desolv Energy     =   -0.11 kcal/mol
DOCKED: USER        Electrostatic Energy            =   -1.37 kcal/mol
DOCKED: USER    (2) Final Total Internal Energy     =   +0.00 kcal/mol
DOCKED: USER    (3) Torsional Free Energy           =   +0.00 kcal/mol
DOCKED: USER    (4) Unbound System's Energy  [=(2)] =   +0.00 kcal/mol
DOCKED: USER    
DOCKED: USER    
DOCKED: USER    NEWDPF move ../ligands/orthovanadate.pdbqt
DOCKED: USER    NEWDPF about 0.000000 0.000000 0.000000
DOCKED: USER    NEWDPF tran0 -35.775521 -20.120133 -43.213917
DOCKED: USER    NEWDPF quaternion0 -0.756132 0.555968 0.330429 -0.099905
DOCKED: USER    NEWDPF axisangle0 -0.759934 0.558763 0.332091 -168.532597
DOCKED: USER    NEWDPF quat0 -0.759934 0.558763 0.332091 -168.532597
DOCKED: USER  keepresnum = 1 
DOCKED: USER  
DOCKED: USER                              x       y       z     vdW  Elec       q    Type
DOCKED: USER                           _______ _______ _______ _____ _____    ______ ____
DOCKED: ROOT
DOCKED: ATOM      1  V1  VO4 A   1     -35.776 -20.120 -43.214 +1.09 +0.80    +1.500 Zn
DOCKED: ATOM      2  O1  VO4 A   1     -36.919 -20.744 -44.382 -0.35 -1.11    -0.750 OA
DOCKED: ATOM      3  O2  VO4 A   1     -34.302 -21.061 -43.280 -0.56 -0.48    -0.750 OA
DOCKED: ATOM      4  O3  VO4 A   1     -36.464 -20.227 -41.609 +0.15 -0.15    -0.750 OA
DOCKED: ATOM      5  O4  VO4 A   1     -35.417 -18.448 -43.585 -0.44 -0.43    -0.750 OA
DOCKED: ENDROOT
DOCKED: TORSDOF 0
DOCKED: TER
DOCKED: ENDMDL
________________________________________________________________________________


	BEGINNING GENETIC ALGORITHM DOCKING 4 of 50
Run: 4 Seed: 1406764954 1832398113 [ Run 4 of 50 GA/GALS ]
Beginning LAMARCKIAN GENETIC ALGORITHM (LGA), with a maximum of 250000 energy evaluations.

Final-Value: -1.488


	FINAL GENETIC ALGORITHM DOCKED STATE
	_______________________________________________


Detailed state:  trans -35.790 -20.120 -43.174 quatxyzw 0.120262 0.332801 -0.554786 -0.752989 center 0.000 0.000 0.000 ntor 0
State:	-35.790 -20.120 -43.174   0.183  0.506 -0.843 -82.300  

DOCKED: MODEL        4
DOCKED: USER    Run = 4
DOCKED: USER    DPF = pocket_small.dpf
DOCKED: USER  
DOCKED: USER    Estimated Free Energy of Binding    =   -1.49 kcal/mol  [=(1)+(2)+(3)-(4)]
DOCKED: USER    Estimated Inhibition Constant, Ki   =   81.15 mM (millimolar)  [Temperature = 298.15 K]
DOCKED: USER    
DOCKED: USER    (1) Final Intermolecular Energy     =   -1.49 kcal/mol
DOCKED: USER        vdW + Hbond + desolv Energy     =   -0.11 kcal/mol
DOCKED: USER        Electrostatic Energy            =   -1.37 kcal/mol
DOCKED: USER    (2) Final Total Internal Energy     =   +0.00 kcal/mol
DOCKED: USER    (3) Torsional Free Energy           =   +0.00 kcal/mol
DOCKED: USER    (4) Unbound System's Energy  [=(2)] =   +0.00 kcal/mol
DOCKED: USER    
DOCKED: USER    
DOCKED: USER    NEWDPF move ../ligands/orthovanadate.pdbqt
DOCKED: USER    NEWDPF about 0.000000 0.000000 0.000000
DOCKED: USER    NEWDPF tran0 -35.789796 -20.120078 -43.173949
DOCKED: USER    NEWDPF quaternion0 0.120262 0.332801 -0.554786 -0.752989
DOCKED: USER    NEWDPF axisangle0 0.182760 0.505752 -0.843098 -82.300018
DOCKED: USER    NEWDPF quat0 0.182760 0.505752 -0.843098 -82.300018
DOCKED: USER  keepresnum = 1 
DOCKED: USER  
DOCKED: USER                              x       y       z     vdW  Elec       q    Type
DOCKED: USER                           _______ _______ _______ _____ _____    ______ ____
DOCKED: ROOT
DOCKED: ATOM      1  V1  VO4 A   1     -35.790 -20.120 -43.174 +1.09 +0.78    +1.500 Zn
DOCKED: ATOM      2  O1  VO4 A   1     -34.329 -21.080 -43.248 -0.59 -0.47    -0.750 OA
DOCKED: ATOM      3  O2  VO4 A   1     -36.921 -20.686 -44.382 -0.36 -1.14    -0.750 OA
DOCKED: ATOM      4  O3  VO4 A   1     -35.401 -18.442 -43.480 -0.41 -0.40    -0.750 OA
DOCKED: ATOM      5  O4  VO4 A   1     -36.508 -20.272 -41.586 +0.15 -0.15    -0.750 OA
DOCKED: ENDROOT
DOCKED: TORSDOF 0
DOCKED: TER
DOCKED: ENDMDL
________________________________________________________________________________


	BEGINNING GENETIC ALGORITHM DOCKING 5 of 50
Run: 5 Seed: 918909355 474244114 [ Run 5 of 50 GA/GALS ]
Beginning LAMARCKIAN GENETIC ALGORITHM (LGA), with a maximum of 250000 energy evaluations.

Final-Value: -1.505


	FINAL GENETIC ALGORITHM DOCKED STATE
	_______________________________________________


Detailed state:  trans -35.878 -20.051 -43.222 quatxyzw -0.319539 0.101547 -0.740889 0.581951 center 0.000 0.000 0.000 ntor 0
State:	-35.878 -20.051 -43.222  -0.393  0.125 -0.911 108.824  

DOCKED: MODEL        5
DOCKED: USER    Run = 5
DOCKED: USER    DPF = pocket_small.dpf
DOCKED: USER  
DOCKED: USER    Estimated Free Energy of Binding    =   -1.50 kcal/mol  [=(1)+(2)+(3)-(4)]
DOCKED: USER    Estimated Inhibition Constant, Ki   =   78.91 mM (millimolar)  [Temperature = 298.15 K]
DOCKED: USER    
DOCKED: USER    (1) Final Intermolecular Energy     =   -1.50 kcal/mol
DOCKED: USER        vdW + Hbond + desolv Energy     =   -0.10 kcal/mol
DOCKED: USER        Electrostatic Energy            =   -1.41 kcal/mol
DOCKED: USER    (2) Final Total Internal Energy     =   +0.00 kcal/mol
DOCKED: USER    (3) Torsional Free Energy           =   +0.00 kcal/mol
DOCKED: USER    (4) Unbound System's Energy  [=(2)] =   +0.00 kcal/mol
DOCKED: USER    
DOCKED: USER    
DOCKED: USER    NEWDPF move ../ligands/orthovanadate.pdbqt
DOCKED: USER    NEWDPF about 0.000000 0.000000 0.000000
DOCKED: USER    NEWDPF tran0 -35.877832 -20.051101 -43.222031
DOCKED: USER    NEWDPF quaternion0 -0.319539 0.101547 -0.740889 0.581951
DOCKED: USER    NEWDPF axisangle0 -0.392929 0.124870 -0.911051 108.824301
DOCKED: USER    NEWDPF quat0 -0.392929 0.124870 -0.911051 108.824301
DOCKED: USER  keepresnum = 1 
DOCKED: USER  
DOCKED: USER                              x       y       z     vdW  Elec       q    Type
DOCKED: USER                           _______ _______ _______ _____ _____    ______ ____
DOCKED: ROOT
DOCKED: ATOM      1  V1  VO4 A   1     -35.878 -20.051 -43.222 +1.09 +0.81    +1.500 Zn
DOCKED: ATOM      2  O1  VO4 A   1     -36.575 -20.078 -41.618 +0.15 -0.15    -0.750 OA
DOCKED: ATOM      3  O2  VO4 A   1     -35.420 -18.413 -43.631 -0.44 -0.43    -0.750 OA
DOCKED: ATOM      4  O3  VO4 A   1     -37.054 -20.634 -44.379 -0.31 -1.17    -0.750 OA
DOCKED: ATOM      5  O4  VO4 A   1     -34.463 -21.079 -43.260 -0.59 -0.46    -0.750 OA
DOCKED: ENDROOT
DOCKED: TORSDOF 0
DOCKED: TER
DOCKED: ENDMDL
________________________________________________________________________________


	BEGINNING GENETIC ALGORITHM DOCKING 6 of 50
Run: 6 Seed: 434713591 121595533 [ Run 6 of 50 GA/GALS ]
Beginning LAMARCKIAN GENETIC ALGORITHM (LGA), with a maximum of 250000 energy evaluations.

Final-Value: -1.481


	FINAL GENETIC ALGORITHM DOCKED STATE
	_______________________________________________


Detailed state:  trans -35.971 -19.961 -43.312 quatxyzw 0.598881 0.694755 0.116061 0.381034 center 0.000 0.000 0.000 ntor 0
State:	-35.971 -19.961 -43.312   0.648  0.751  0.126 135.204  

DOCKED: MODEL        6
DOCKED: USER    Run = 6
DOCKED: USER    DPF = pocket_small.dpf
DOCKED: USER  
DOCKED: USER    Estimated Free Energy of Binding    =   -1.48 kcal/mol  [=(1)+(2)+(3)-(4)]
DOCKED: USER    Estimated Inhibition Constant, Ki   =   82.16 mM (millimolar)  [Temperature = 298.15 K]
DOCKED: USER    
DOCKED: USER    (1) Final Intermolecular Energy     =   -1.48 kcal/mol
DOCKED: USER        vdW + Hbond + desolv Energy     =   +0.03 kcal/mol
DOCKED: USER        Electrostatic Energy            =   -1.51 kcal/mol
DOCKED: USER    (2) Final Total Internal Energy     =   +0.00 kcal/mol
DOCKED: USER    (3) Torsional Free Energy           =   +0.00 kcal/mol
DOCKED: USER    (4) Unbound System's Energy  [=(2)] =   +0.00 kcal/mol
DOCKED: USER    
DOCKED: USER    
DOCKED: USER    NEWDPF move ../ligands/orthovanadate.pdbqt
DOCKED: USER    NEWDPF about 0.000000 0.000000 0.000000
DOCKED: USER    NEWDPF tran0 -35.970598 -19.961317 -43.311969
DOCKED: USER    NEWDPF quaternion0 0.598881 0.694755 0.116061 0.381034
DOCKED: USER    NEWDPF axisangle0 0.647747 0.751443 0.125531 135.204490
DOCKED: USER    NEWDPF quat0 0.647747 0.751443 0.125531 135.204490
DOCKED: USER  keepresnum = 1 
DOCKED: USER  
DOCKED: USER                              x       y       z     vdW  Elec       q    Type
DOCKED: USER                           _______ _______ _______ _____ _____    ______ ____
DOCKED: ROOT
DOCKED: ATOM      1  V1  VO4 A   1     -35.971 -19.961 -43.312 +1.09 +0.86    +1.500 Zn
DOCKED: ATOM      2  O1  VO4 A   1     -35.427 -18.328 -43.624 -0.42 -0.41    -0.750 OA
DOCKED: ATOM      3  O2  VO4 A   1     -36.498 -20.092 -41.649 +0.15 -0.15    -0.750 OA
DOCKED: ATOM      4  O3  VO4 A   1     -34.654 -21.078 -43.596 -0.62 -0.52    -0.750 OA
DOCKED: ATOM      5  O4  VO4 A   1     -37.303 -20.347 -44.379 -0.16 -1.28    -0.750 OA
DOCKED: ENDROOT
DOCKED: TORSDOF 0
DOCKED: TER
DOCKED: ENDMDL
________________________________________________________________________________


	BEGINNING GENETIC ALGORITHM DOCKING 7 of 50
Run: 7 Seed: 952957195 101801306 [ Run 7 of 50 GA/GALS ]
Beginning LAMARCKIAN GENETIC ALGORITHM (LGA), with a maximum of 250000 energy evaluations.

Final-Value: -1.485


	FINAL GENETIC ALGORITHM DOCKED STATE
	_______________________________________________


Detailed state:  trans -35.786 -20.129 -43.166 quatxyzw -0.879728 -0.210708 0.009564 0.426133 center 0.000 0.000 0.000 ntor 0
State:	-35.786 -20.129 -43.166  -0.972 -0.233  0.011 129.555  

DOCKED: MODEL        7
DOCKED: USER    Run = 7
DOCKED: USER    DPF = pocket_small.dpf
DOCKED: USER  
DOCKED: USER    Estimated Free Energy of Binding    =   -1.49 kcal/mol  [=(1)+(2)+(3)-(4)]
DOCKED: USER    Estimated Inhibition Constant, Ki   =   81.55 mM (millimolar)  [Temperature = 298.15 K]
DOCKED: USER    
DOCKED: USER    (1) Final Intermolecular Energy     =   -1.49 kcal/mol
DOCKED: USER        vdW + Hbond + desolv Energy     =   -0.13 kcal/mol
DOCKED: USER        Electrostatic Energy            =   -1.36 kcal/mol
DOCKED: USER    (2) Final Total Internal Energy     =   +0.00 kcal/mol
DOCKED: USER    (3) Torsional Free Energy           =   +0.00 kcal/mol
DOCKED: USER    (4) Unbound System's Energy  [=(2)] =   +0.00 kcal/mol
DOCKED: USER    
DOCKED: USER    
DOCKED: USER    NEWDPF move ../ligands/orthovanadate.pdbqt
DOCKED: USER    NEWDPF about 0.000000 0.000000 0.000000
DOCKED: USER    NEWDPF tran0 -35.785557 -20.129052 -43.165557
DOCKED: USER    NEWDPF quaternion0 -0.879728 -0.210708 0.009564 0.426133
DOCKED: USER    NEWDPF axisangle0 -0.972440 -0.232914 0.010572 129.555204
DOCKED: USER    NEWDPF quat0 -0.972440 -0.232914 0.010572 129.555204
DOCKED: USER  keepresnum = 1 
DOCKED: USER  
DOCKED: USER                              x       y       z     vdW  Elec       q    Type
DOCKED: USER                           _______ _______ _______ _____ _____    ______ ____
DOCKED: ROOT
DOCKED: ATOM      1  V1  VO4 A   1     -35.786 -20.129 -43.166 +1.10 +0.78    +1.500 Zn
DOCKED: ATOM      2  O1  VO4 A   1     -34.318 -21.078 -43.254 -0.59 -0.47    -0.750 OA
DOCKED: ATOM      3  O2  VO4 A   1     -35.412 -18.448 -43.474 -0.42 -0.40    -0.750 OA
DOCKED: ATOM      4  O3  VO4 A   1     -36.487 -20.287 -41.571 +0.15 -0.15    -0.750 OA
DOCKED: ATOM      5  O4  VO4 A   1     -36.924 -20.703 -44.363 -0.36 -1.12    -0.750 OA
DOCKED: ENDROOT
DOCKED: TORSDOF 0
DOCKED: TER
DOCKED: ENDMDL
________________________________________________________________________________


	BEGINNING GENETIC ALGORITHM DOCKING 8 of 50
Run: 8 Seed: 1458383929 483739175 [ Run 8 of 50 GA/GALS ]
Beginning LAMARCKIAN GENETIC ALGORITHM (LGA), with a maximum of 250000 energy evaluations.

Final-Value: -1.478


	FINAL GENETIC ALGORITHM DOCKED STATE
	_______________________________________________


Detailed state:  trans -35.832 -20.087 -43.186 quatxyzw 0.124101 0.770933 0.300211 -0.547846 center 0.000 0.000 0.000 ntor 0
State:	-35.832 -20.087 -43.186   0.148  0.922  0.359 -113.561  

DOCKED: MODEL        8
DOCKED: USER    Run = 8
DOCKED: USER    DPF = pocket_small.dpf
DOCKED: USER  
DOCKED: USER    Estimated Free Energy of Binding    =   -1.48 kcal/mol  [=(1)+(2)+(3)-(4)]
DOCKED: USER    Estimated Inhibition Constant, Ki   =   82.51 mM (millimolar)  [Temperature = 298.15 K]
DOCKED: USER    
DOCKED: USER    (1) Final Intermolecular Energy     =   -1.48 kcal/mol
DOCKED: USER        vdW + Hbond + desolv Energy     =   -0.12 kcal/mol
DOCKED: USER        Electrostatic Energy            =   -1.36 kcal/mol
DOCKED: USER    (2) Final Total Internal Energy     =   +0.00 kcal/mol
DOCKED: USER    (3) Torsional Free Energy           =   +0.00 kcal/mol
DOCKED: USER    (4) Unbound System's Energy  [=(2)] =   +0.00 kcal/mol
DOCKED: USER    
DOCKED: USER    
DOCKED: USER    NEWDPF move ../ligands/orthovanadate.pdbqt
DOCKED: USER    NEWDPF about 0.000000 0.000000 0.000000
DOCKED: USER    NEWDPF tran0 -35.832424 -20.087382 -43.186192
DOCKED: USER    NEWDPF quaternion0 0.124101 0.770933 0.300211 -0.547846
DOCKED: USER    NEWDPF axisangle0 0.148343 0.921530 0.358855 -113.561304
DOCKED: USER    NEWDPF quat0 0.148343 0.921530 0.358855 -113.561304
DOCKED: USER  keepresnum = 1 
DOCKED: USER  
DOCKED: USER                              x       y       z     vdW  Elec       q    Type
DOCKED: USER                           _______ _______ _______ _____ _____    ______ ____
DOCKED: ROOT
DOCKED: ATOM      1  V1  VO4 A   1     -35.832 -20.087 -43.186 +1.09 +0.79    +1.500 Zn
DOCKED: ATOM      2  O1  VO4 A   1     -35.416 -18.435 -43.581 -0.44 -0.43    -0.750 OA
DOCKED: ATOM      3  O2  VO4 A   1     -36.994 -20.689 -44.347 -0.33 -1.12    -0.750 OA
DOCKED: ATOM      4  O3  VO4 A   1     -36.527 -20.146 -41.582 +0.15 -0.15    -0.750 OA
DOCKED: ATOM      5  O4  VO4 A   1     -34.392 -21.080 -43.235 -0.59 -0.46    -0.750 OA
DOCKED: ENDROOT
DOCKED: TORSDOF 0
DOCKED: TER
DOCKED: ENDMDL
________________________________________________________________________________


	BEGINNING GENETIC ALGORITHM DOCKING 9 of 50
Run: 9 Seed: 1272413770 1776422479 [ Run 9 of 50 GA/GALS ]
Beginning LAMARCKIAN GENETIC ALGORITHM (LGA), with a maximum of 250000 energy evaluations.

Final-Value: -1.495


	FINAL GENETIC ALGORITHM DOCKED STATE
	_______________________________________________


Detailed state:  trans -35.820 -20.110 -43.202 quatxyzw -0.567893 -0.750871 -0.104613 -0.320542 center 0.000 0.000 0.000 ntor 0
State:	-35.820 -20.110 -43.202  -0.600 -0.793 -0.110 -142.609  

DOCKED: MODEL        9
DOCKED: USER    Run = 9
DOCKED: USER    DPF = pocket_small.dpf
DOCKED: USER  
DOCKED: USER    Estimated Free Energy of Binding    =   -1.49 kcal/mol  [=(1)+(2)+(3)-(4)]
DOCKED: USER    Estimated Inhibition Constant, Ki   =   80.24 mM (millimolar)  [Temperature = 298.15 K]
DOCKED: USER    
DOCKED: USER    (1) Final Intermolecular Energy     =   -1.49 kcal/mol
DOCKED: USER        vdW + Hbond + desolv Energy     =   -0.11 kcal/mol
DOCKED: USER        Electrostatic Energy            =   -1.39 kcal/mol
DOCKED: USER    (2) Final Total Internal Energy     =   +0.00 kcal/mol
DOCKED: USER    (3) Torsional Free Energy           =   +0.00 kcal/mol
DOCKED: USER    (4) Unbound System's Energy  [=(2)] =   +0.00 kcal/mol
DOCKED: USER    
DOCKED: USER    
DOCKED: USER    NEWDPF move ../ligands/orthovanadate.pdbqt
DOCKED: USER    NEWDPF about 0.000000 0.000000 0.000000
DOCKED: USER    NEWDPF tran0 -35.820348 -20.109672 -43.202276
DOCKED: USER    NEWDPF quaternion0 -0.567893 -0.750871 -0.104613 -0.320542
DOCKED: USER    NEWDPF axisangle0 -0.599527 -0.792698 -0.110441 -142.608630
DOCKED: USER    NEWDPF quat0 -0.599527 -0.792698 -0.110441 -142.608630
DOCKED: USER  keepresnum = 1 
DOCKED: USER  
DOCKED: USER                              x       y       z     vdW  Elec       q    Type
DOCKED: USER                           _______ _______ _______ _____ _____    ______ ____
DOCKED: ROOT
DOCKED: ATOM      1  V1  VO4 A   1     -35.820 -20.110 -43.202 +1.09 +0.80    +1.500 Zn
DOCKED: ATOM      2  O1  VO4 A   1     -35.408 -18.453 -43.585 -0.43 -0.43    -0.750 OA
DOCKED: ATOM      3  O2  VO4 A   1     -36.534 -20.179 -41.607 +0.15 -0.15    -0.750 OA
DOCKED: ATOM      4  O3  VO4 A   1     -34.374 -21.093 -43.237 -0.58 -0.47    -0.750 OA
DOCKED: ATOM      5  O4  VO4 A   1     -36.965 -20.713 -44.380 -0.34 -1.13    -0.750 OA
DOCKED: ENDROOT
DOCKED: TORSDOF 0
DOCKED: TER
DOCKED: ENDMDL
________________________________________________________________________________


	BEGINNING GENETIC ALGORITHM DOCKING 10 of 50
Run: 10 Seed: 1440248905 1640927267 [ Run 10 of 50 GA/GALS ]
Beginning LAMARCKIAN GENETIC ALGORITHM (LGA), with a maximum of 250000 energy evaluations.

Final-Value: -1.473


	FINAL GENETIC ALGORITHM DOCKED STATE
	_______________________________________________


Detailed state:  trans -35.953 -20.084 -43.218 quatxyzw -0.026696 -0.448734 -0.872379 -0.192041 center 0.000 0.000 0.000 ntor 0
State:	-35.953 -20.084 -43.218  -0.027 -0.457 -0.889 -157.856  

DOCKED: MODEL       10
DOCKED: USER    Run = 10
DOCKED: USER    DPF = pocket_small.dpf
DOCKED: USER  
DOCKED: USER    Estimated Free Energy of Binding    =   -1.47 kcal/mol  [=(1)+(2)+(3)-(4)]
DOCKED: USER    Estimated Inhibition Constant, Ki   =   83.20 mM (millimolar)  [Temperature = 298.15 K]
DOCKED: USER    
DOCKED: USER    (1) Final Intermolecular Energy     =   -1.47 kcal/mol
DOCKED: USER        vdW + Hbond + desolv Energy     =   -0.08 kcal/mol
DOCKED: USER        Electrostatic Energy            =   -1.40 kcal/mol
DOCKED: USER    (2) Final Total Internal Energy     =   +0.00 kcal/mol
DOCKED: USER    (3) Torsional Free Energy           =   +0.00 kcal/mol
DOCKED: USER    (4) Unbound System's Energy  [=(2)] =   +0.00 kcal/mol
DOCKED: USER    
DOCKED: USER    
DOCKED: USER    NEWDPF move ../ligands/orthovanadate.pdbqt
DOCKED: USER    NEWDPF about 0.000000 0.000000 0.000000
DOCKED: USER    NEWDPF tran0 -35.952647 -20.083511 -43.218131
DOCKED: USER    NEWDPF quaternion0 -0.026696 -0.448734 -0.872379 -0.192041
DOCKED: USER    NEWDPF axisangle0 -0.027203 -0.457244 -0.888925 -157.856145
DOCKED: USER    NEWDPF quat0 -0.027203 -0.457244 -0.888925 -157.856145
DOCKED: USER  keepresnum = 1 
DOCKED: USER  
DOCKED: USER                              x       y       z     vdW  Elec       q    Type
DOCKED: USER                           _______ _______ _______ _____ _____    ______ ____
DOCKED: ROOT
DOCKED: ATOM      1  V1  VO4 A   1     -35.953 -20.084 -43.218 +1.09 +0.81    +1.500 Zn
DOCKED: ATOM      2  O1  VO4 A   1     -36.651 -20.125 -41.615 +0.16 -0.15    -0.750 OA
DOCKED: ATOM      3  O2  VO4 A   1     -37.122 -20.670 -44.379 -0.28 -1.17    -0.750 OA
DOCKED: ATOM      4  O3  VO4 A   1     -34.529 -21.099 -43.261 -0.59 -0.46    -0.750 OA
DOCKED: ATOM      5  O4  VO4 A   1     -35.508 -18.439 -43.618 -0.46 -0.42    -0.750 OA
DOCKED: ENDROOT
DOCKED: TORSDOF 0
DOCKED: TER
DOCKED: ENDMDL
________________________________________________________________________________


	BEGINNING GENETIC ALGORITHM DOCKING 11 of 50
Run: 11 Seed: 2122928456 1683555892 [ Run 11 of 50 GA/GALS ]
Beginning LAMARCKIAN GENETIC ALGORITHM (LGA), with a maximum of 250000 energy evaluations.

Final-Value: -1.490


	FINAL GENETIC ALGORITHM DOCKED STATE
	_______________________________________________


Detailed state:  trans -35.843 -20.071 -43.194 quatxyzw -0.550773 -0.304240 0.766348 -0.129605 center 0.000 0.000 0.000 ntor 0
State:	-35.843 -20.071 -43.194  -0.555 -0.307  0.773 -165.106  

DOCKED: MODEL       11
DOCKED: USER    Run = 11
DOCKED: USER    DPF = pocket_small.dpf
DOCKED: USER  
DOCKED: USER    Estimated Free Energy of Binding    =   -1.49 kcal/mol  [=(1)+(2)+(3)-(4)]
DOCKED: USER    Estimated Inhibition Constant, Ki   =   80.94 mM (millimolar)  [Temperature = 298.15 K]
DOCKED: USER    
DOCKED: USER    (1) Final Intermolecular Energy     =   -1.49 kcal/mol
DOCKED: USER        vdW + Hbond + desolv Energy     =   -0.10 kcal/mol
DOCKED: USER        Electrostatic Energy            =   -1.39 kcal/mol
DOCKED: USER    (2) Final Total Internal Energy     =   +0.00 kcal/mol
DOCKED: USER    (3) Torsional Free Energy           =   +0.00 kcal/mol
DOCKED: USER    (4) Unbound System's Energy  [=(2)] =   +0.00 kcal/mol
DOCKED: USER    
DOCKED: USER    
DOCKED: USER    NEWDPF move ../ligands/orthovanadate.pdbqt
DOCKED: USER    NEWDPF about 0.000000 0.000000 0.000000
DOCKED: USER    NEWDPF tran0 -35.843208 -20.071252 -43.194474
DOCKED: USER    NEWDPF quaternion0 -0.550773 -0.304240 0.766348 -0.129605
DOCKED: USER    NEWDPF axisangle0 -0.555458 -0.306828 0.772867 -165.106419
DOCKED: USER    NEWDPF quat0 -0.555458 -0.306828 0.772867 -165.106419
DOCKED: USER  keepresnum = 1 
DOCKED: USER  
DOCKED: USER                              x       y       z     vdW  Elec       q    Type
DOCKED: USER                           _______ _______ _______ _____ _____    ______ ____
DOCKED: ROOT
DOCKED: ATOM      1  V1  VO4 A   1     -35.843 -20.071 -43.194 +1.09 +0.79    +1.500 Zn
DOCKED: ATOM      2  O1  VO4 A   1     -37.001 -20.648 -44.372 -0.33 -1.15    -0.750 OA
DOCKED: ATOM      3  O2  VO4 A   1     -35.412 -18.416 -43.563 -0.43 -0.42    -0.750 OA
DOCKED: ATOM      4  O3  VO4 A   1     -34.410 -21.073 -43.247 -0.59 -0.46    -0.750 OA
DOCKED: ATOM      5  O4  VO4 A   1     -36.550 -20.148 -41.596 +0.15 -0.15    -0.750 OA
DOCKED: ENDROOT
DOCKED: TORSDOF 0
DOCKED: TER
DOCKED: ENDMDL
________________________________________________________________________________


	BEGINNING GENETIC ALGORITHM DOCKING 12 of 50
Run: 12 Seed: 300581381 628632642 [ Run 12 of 50 GA/GALS ]
Beginning LAMARCKIAN GENETIC ALGORITHM (LGA), with a maximum of 250000 energy evaluations.

Final-Value: -1.475


	FINAL GENETIC ALGORITHM DOCKED STATE
	_______________________________________________


Detailed state:  trans -35.908 -20.065 -43.220 quatxyzw 0.326805 -0.101266 0.742745 -0.575564 center 0.000 0.000 0.000 ntor 0
State:	-35.908 -20.065 -43.220   0.400 -0.124  0.908 -109.722  

DOCKED: MODEL       12
DOCKED: USER    Run = 12
DOCKED: USER    DPF = pocket_small.dpf
DOCKED: USER  
DOCKED: USER    Estimated Free Energy of Binding    =   -1.48 kcal/mol  [=(1)+(2)+(3)-(4)]
DOCKED: USER    Estimated Inhibition Constant, Ki   =   82.90 mM (millimolar)  [Temperature = 298.15 K]
DOCKED: USER    
DOCKED: USER    (1) Final Intermolecular Energy     =   -1.48 kcal/mol
DOCKED: USER        vdW + Hbond + desolv Energy     =   -0.08 kcal/mol
DOCKED: USER        Electrostatic Energy            =   -1.40 kcal/mol
DOCKED: USER    (2) Final Total Internal Energy     =   +0.00 kcal/mol
DOCKED: USER    (3) Torsional Free Energy           =   +0.00 kcal/mol
DOCKED: USER    (4) Unbound System's Energy  [=(2)] =   +0.00 kcal/mol
DOCKED: USER    
DOCKED: USER    
DOCKED: USER    NEWDPF move ../ligands/orthovanadate.pdbqt
DOCKED: USER    NEWDPF about 0.000000 0.000000 0.000000
DOCKED: USER    NEWDPF tran0 -35.907921 -20.065360 -43.220281
DOCKED: USER    NEWDPF quaternion0 0.326805 -0.101266 0.742745 -0.575564
DOCKED: USER    NEWDPF axisangle0 0.399636 -0.123834 0.908271 -109.721730
DOCKED: USER    NEWDPF quat0 0.399636 -0.123834 0.908271 -109.721730
DOCKED: USER  keepresnum = 1 
DOCKED: USER  
DOCKED: USER                              x       y       z     vdW  Elec       q    Type
DOCKED: USER                           _______ _______ _______ _____ _____    ______ ____
DOCKED: ROOT
DOCKED: ATOM      1  V1  VO4 A   1     -35.908 -20.065 -43.220 +1.09 +0.81    +1.500 Zn
DOCKED: ATOM      2  O1  VO4 A   1     -36.591 -20.121 -41.611 +0.15 -0.15    -0.750 OA
DOCKED: ATOM      3  O2  VO4 A   1     -35.475 -18.417 -43.614 -0.45 -0.42    -0.750 OA
DOCKED: ATOM      4  O3  VO4 A   1     -37.086 -20.650 -44.374 -0.29 -1.17    -0.750 OA
DOCKED: ATOM      5  O4  VO4 A   1     -34.480 -21.074 -43.283 -0.58 -0.47    -0.750 OA
DOCKED: ENDROOT
DOCKED: TORSDOF 0
DOCKED: TER
DOCKED: ENDMDL
________________________________________________________________________________


	BEGINNING GENETIC ALGORITHM DOCKING 13 of 50
Run: 13 Seed: 1647095059 351314450 [ Run 13 of 50 GA/GALS ]
Beginning LAMARCKIAN GENETIC ALGORITHM (LGA), with a maximum of 250000 energy evaluations.

Final-Value: -1.497


	FINAL GENETIC ALGORITHM DOCKED STATE
	_______________________________________________


Detailed state:  trans -35.838 -20.110 -43.218 quatxyzw -0.117524 -0.771494 -0.306848 0.544821 center 0.000 0.000 0.000 ntor 0
State:	-35.838 -20.110 -43.218  -0.140 -0.920 -0.366 113.975  

DOCKED: MODEL       13
DOCKED: USER    Run = 13
DOCKED: USER    DPF = pocket_small.dpf
DOCKED: USER  
DOCKED: USER    Estimated Free Energy of Binding    =   -1.50 kcal/mol  [=(1)+(2)+(3)-(4)]
DOCKED: USER    Estimated Inhibition Constant, Ki   =   79.93 mM (millimolar)  [Temperature = 298.15 K]
DOCKED: USER    
DOCKED: USER    (1) Final Intermolecular Energy     =   -1.50 kcal/mol
DOCKED: USER        vdW + Hbond + desolv Energy     =   -0.12 kcal/mol
DOCKED: USER        Electrostatic Energy            =   -1.38 kcal/mol
DOCKED: USER    (2) Final Total Internal Energy     =   +0.00 kcal/mol
DOCKED: USER    (3) Torsional Free Energy           =   +0.00 kcal/mol
DOCKED: USER    (4) Unbound System's Energy  [=(2)] =   +0.00 kcal/mol
DOCKED: USER    
DOCKED: USER    
DOCKED: USER    NEWDPF move ../ligands/orthovanadate.pdbqt
DOCKED: USER    NEWDPF about 0.000000 0.000000 0.000000
DOCKED: USER    NEWDPF tran0 -35.837604 -20.110465 -43.218178
DOCKED: USER    NEWDPF quaternion0 -0.117524 -0.771494 -0.306848 0.544821
DOCKED: USER    NEWDPF axisangle0 -0.140151 -0.920030 -0.365926 113.975090
DOCKED: USER    NEWDPF quat0 -0.140151 -0.920030 -0.365926 113.975090
DOCKED: USER  keepresnum = 1 
DOCKED: USER  
DOCKED: USER                              x       y       z     vdW  Elec       q    Type
DOCKED: USER                           _______ _______ _______ _____ _____    ______ ____
DOCKED: ROOT
DOCKED: ATOM      1  V1  VO4 A   1     -35.838 -20.110 -43.218 +1.09 +0.80    +1.500 Zn
DOCKED: ATOM      2  O1  VO4 A   1     -35.453 -18.449 -43.607 -0.45 -0.43    -0.750 OA
DOCKED: ATOM      3  O2  VO4 A   1     -36.987 -20.730 -44.382 -0.33 -1.13    -0.750 OA
DOCKED: ATOM      4  O3  VO4 A   1     -36.532 -20.188 -41.614 +0.15 -0.15    -0.750 OA
DOCKED: ATOM      5  O4  VO4 A   1     -34.379 -21.074 -43.270 -0.58 -0.47    -0.750 OA
DOCKED: ENDROOT
DOCKED: TORSDOF 0
DOCKED: TER
DOCKED: ENDMDL
________________________________________________________________________________


	BEGINNING GENETIC ALGORITHM DOCKING 14 of 50
Run: 14 Seed: 1195301510 1945794029 [ Run 14 of 50 GA/GALS ]
Beginning LAMARCKIAN GENETIC ALGORITHM (LGA), with a maximum of 250000 energy evaluations.

Final-Value: -1.497


	FINAL GENETIC ALGORITHM DOCKED STATE
	_______________________________________________


Detailed state:  trans -35.806 -20.108 -43.220 quatxyzw -0.302776 0.548305 0.111022 0.771597 center 0.000 0.000 0.000 ntor 0
State:	-35.806 -20.108 -43.220  -0.476  0.862  0.175 79.005  

DOCKED: MODEL       14
DOCKED: USER    Run = 14
DOCKED: USER    DPF = pocket_small.dpf
DOCKED: USER  
DOCKED: USER    Estimated Free Energy of Binding    =   -1.50 kcal/mol  [=(1)+(2)+(3)-(4)]
DOCKED: USER    Estimated Inhibition Constant, Ki   =   79.87 mM (millimolar)  [Temperature = 298.15 K]
DOCKED: USER    
DOCKED: USER    (1) Final Intermolecular Energy     =   -1.50 kcal/mol
DOCKED: USER        vdW + Hbond + desolv Energy     =   -0.12 kcal/mol
DOCKED: USER        Electrostatic Energy            =   -1.38 kcal/mol
DOCKED: USER    (2) Final Total Internal Energy     =   +0.00 kcal/mol
DOCKED: USER    (3) Torsional Free Energy           =   +0.00 kcal/mol
DOCKED: USER    (4) Unbound System's Energy  [=(2)] =   +0.00 kcal/mol
DOCKED: USER    
DOCKED: USER    
DOCKED: USER    NEWDPF move ../ligands/orthovanadate.pdbqt
DOCKED: USER    NEWDPF about 0.000000 0.000000 0.000000
DOCKED: USER    NEWDPF tran0 -35.805698 -20.108393 -43.219839
DOCKED: USER    NEWDPF quaternion0 -0.302776 0.548305 0.111022 0.771597
DOCKED: USER    NEWDPF axisangle0 -0.475980 0.861963 0.174532 79.004879
DOCKED: USER    NEWDPF quat0 -0.475980 0.861963 0.174532 79.004879
DOCKED: USER  keepresnum = 1 
DOCKED: USER  
DOCKED: USER                              x       y       z     vdW  Elec       q    Type
DOCKED: USER                           _______ _______ _______ _____ _____    ______ ____
DOCKED: ROOT
DOCKED: ATOM      1  V1  VO4 A   1     -35.806 -20.108 -43.220 +1.09 +0.80    +1.500 Zn
DOCKED: ATOM      2  O1  VO4 A   1     -36.513 -20.166 -41.621 +0.15 -0.15    -0.750 OA
DOCKED: ATOM      3  O2  VO4 A   1     -34.343 -21.068 -43.246 -0.59 -0.47    -0.750 OA
DOCKED: ATOM      4  O3  VO4 A   1     -35.423 -18.451 -43.629 -0.45 -0.44    -0.750 OA
DOCKED: ATOM      5  O4  VO4 A   1     -36.944 -20.749 -44.384 -0.33 -1.12    -0.750 OA
DOCKED: ENDROOT
DOCKED: TORSDOF 0
DOCKED: TER
DOCKED: ENDMDL
________________________________________________________________________________


	BEGINNING GENETIC ALGORITHM DOCKING 15 of 50
Run: 15 Seed: 1990662326 1423024301 [ Run 15 of 50 GA/GALS ]
Beginning LAMARCKIAN GENETIC ALGORITHM (LGA), with a maximum of 250000 energy evaluations.

Final-Value: -1.491


	FINAL GENETIC ALGORITHM DOCKED STATE
	_______________________________________________


Detailed state:  trans -35.828 -20.092 -43.204 quatxyzw 0.300769 -0.552639 -0.123832 -0.767329 center 0.000 0.000 0.000 ntor 0
State:	-35.828 -20.092 -43.204   0.469 -0.862 -0.193 -79.771  

DOCKED: MODEL       15
DOCKED: USER    Run = 15
DOCKED: USER    DPF = pocket_small.dpf
DOCKED: USER  
DOCKED: USER    Estimated Free Energy of Binding    =   -1.49 kcal/mol  [=(1)+(2)+(3)-(4)]
DOCKED: USER    Estimated Inhibition Constant, Ki   =   80.69 mM (millimolar)  [Temperature = 298.15 K]
DOCKED: USER    
DOCKED: USER    (1) Final Intermolecular Energy     =   -1.49 kcal/mol
DOCKED: USER        vdW + Hbond + desolv Energy     =   -0.10 kcal/mol
DOCKED: USER        Electrostatic Energy            =   -1.39 kcal/mol
DOCKED: USER    (2) Final Total Internal Energy     =   +0.00 kcal/mol
DOCKED: USER    (3) Torsional Free Energy           =   +0.00 kcal/mol
DOCKED: USER    (4) Unbound System's Energy  [=(2)] =   +0.00 kcal/mol
DOCKED: USER    
DOCKED: USER    
DOCKED: USER    NEWDPF move ../ligands/orthovanadate.pdbqt
DOCKED: USER    NEWDPF about 0.000000 0.000000 0.000000
DOCKED: USER    NEWDPF tran0 -35.827850 -20.092395 -43.204113
DOCKED: USER    NEWDPF quaternion0 0.300769 -0.552639 -0.123832 -0.767329
DOCKED: USER    NEWDPF axisangle0 0.469033 -0.861811 -0.193108 -79.770779
DOCKED: USER    NEWDPF quat0 0.469033 -0.861811 -0.193108 -79.770779
DOCKED: USER  keepresnum = 1 
DOCKED: USER  
DOCKED: USER                              x       y       z     vdW  Elec       q    Type
DOCKED: USER                           _______ _______ _______ _____ _____    ______ ____
DOCKED: ROOT
DOCKED: ATOM      1  V1  VO4 A   1     -35.828 -20.092 -43.204 +1.09 +0.80    +1.500 Zn
DOCKED: ATOM      2  O1  VO4 A   1     -36.541 -20.152 -41.608 +0.15 -0.15    -0.750 OA
DOCKED: ATOM      3  O2  VO4 A   1     -34.390 -21.088 -43.238 -0.58 -0.46    -0.750 OA
DOCKED: ATOM      4  O3  VO4 A   1     -35.402 -18.440 -43.591 -0.42 -0.43    -0.750 OA
DOCKED: ATOM      5  O4  VO4 A   1     -36.978 -20.689 -44.380 -0.34 -1.14    -0.750 OA
DOCKED: ENDROOT
DOCKED: TORSDOF 0
DOCKED: TER
DOCKED: ENDMDL
________________________________________________________________________________


	BEGINNING GENETIC ALGORITHM DOCKING 16 of 50
Run: 16 Seed: 29139614 1560180247 [ Run 16 of 50 GA/GALS ]
Beginning LAMARCKIAN GENETIC ALGORITHM (LGA), with a maximum of 250000 energy evaluations.

Final-Value: -1.508


	FINAL GENETIC ALGORITHM DOCKED STATE
	_______________________________________________


Detailed state:  trans -35.815 -20.111 -43.217 quatxyzw 0.018044 0.452388 0.867773 0.204916 center 0.000 0.000 0.000 ntor 0
State:	-35.815 -20.111 -43.217   0.018  0.462  0.887 156.351  

DOCKED: MODEL       16
DOCKED: USER    Run = 16
DOCKED: USER    DPF = pocket_small.dpf
DOCKED: USER  
DOCKED: USER    Estimated Free Energy of Binding    =   -1.51 kcal/mol  [=(1)+(2)+(3)-(4)]
DOCKED: USER    Estimated Inhibition Constant, Ki   =   78.41 mM (millimolar)  [Temperature = 298.15 K]
DOCKED: USER    
DOCKED: USER    (1) Final Intermolecular Energy     =   -1.51 kcal/mol
DOCKED: USER        vdW + Hbond + desolv Energy     =   -0.13 kcal/mol
DOCKED: USER        Electrostatic Energy            =   -1.38 kcal/mol
DOCKED: USER    (2) Final Total Internal Energy     =   +0.00 kcal/mol
DOCKED: USER    (3) Torsional Free Energy           =   +0.00 kcal/mol
DOCKED: USER    (4) Unbound System's Energy  [=(2)] =   +0.00 kcal/mol
DOCKED: USER    
DOCKED: USER    
DOCKED: USER    NEWDPF move ../ligands/orthovanadate.pdbqt
DOCKED: USER    NEWDPF about 0.000000 0.000000 0.000000
DOCKED: USER    NEWDPF tran0 -35.815086 -20.110841 -43.217379
DOCKED: USER    NEWDPF quaternion0 0.018044 0.452388 0.867773 0.204916
DOCKED: USER    NEWDPF axisangle0 0.018435 0.462196 0.886586 156.350850
DOCKED: USER    NEWDPF quat0 0.018435 0.462196 0.886586 156.350850
DOCKED: USER  keepresnum = 1 
DOCKED: USER  
DOCKED: USER                              x       y       z     vdW  Elec       q    Type
DOCKED: USER                           _______ _______ _______ _____ _____    ______ ____
DOCKED: ROOT
DOCKED: ATOM      1  V1  VO4 A   1     -35.815 -20.111 -43.217 +1.09 +0.80    +1.500 Zn
DOCKED: ATOM      2  O1  VO4 A   1     -36.520 -20.165 -41.617 +0.15 -0.15    -0.750 OA
DOCKED: ATOM      3  O2  VO4 A   1     -36.960 -20.742 -44.380 -0.34 -1.12    -0.750 OA
DOCKED: ATOM      4  O3  VO4 A   1     -34.359 -21.080 -43.247 -0.59 -0.47    -0.750 OA
DOCKED: ATOM      5  O4  VO4 A   1     -35.422 -18.456 -43.626 -0.45 -0.44    -0.750 OA
DOCKED: ENDROOT
DOCKED: TORSDOF 0
DOCKED: TER
DOCKED: ENDMDL
________________________________________________________________________________


	BEGINNING GENETIC ALGORITHM DOCKING 17 of 50
Run: 17 Seed: 1900343678 484220340 [ Run 17 of 50 GA/GALS ]
Beginning LAMARCKIAN GENETIC ALGORITHM (LGA), with a maximum of 250000 energy evaluations.

Final-Value: -1.479


	FINAL GENETIC ALGORITHM DOCKED STATE
	_______________________________________________


Detailed state:  trans -35.915 -20.016 -43.222 quatxyzw 0.731263 -0.590394 -0.323691 0.109152 center 0.000 0.000 0.000 ntor 0
State:	-35.915 -20.016 -43.222   0.736 -0.594 -0.326 167.467  

DOCKED: MODEL       17
DOCKED: USER    Run = 17
DOCKED: USER    DPF = pocket_small.dpf
DOCKED: USER  
DOCKED: USER    Estimated Free Energy of Binding    =   -1.48 kcal/mol  [=(1)+(2)+(3)-(4)]
DOCKED: USER    Estimated Inhibition Constant, Ki   =   82.35 mM (millimolar)  [Temperature = 298.15 K]
DOCKED: USER    
DOCKED: USER    (1) Final Intermolecular Energy     =   -1.48 kcal/mol
DOCKED: USER        vdW + Hbond + desolv Energy     =   -0.05 kcal/mol
DOCKED: USER        Electrostatic Energy            =   -1.43 kcal/mol
DOCKED: USER    (2) Final Total Internal Energy     =   +0.00 kcal/mol
DOCKED: USER    (3) Torsional Free Energy           =   +0.00 kcal/mol
DOCKED: USER    (4) Unbound System's Energy  [=(2)] =   +0.00 kcal/mol
DOCKED: USER    
DOCKED: USER    
DOCKED: USER    NEWDPF move ../ligands/orthovanadate.pdbqt
DOCKED: USER    NEWDPF about 0.000000 0.000000 0.000000
DOCKED: USER    NEWDPF tran0 -35.914590 -20.016089 -43.221752
DOCKED: USER    NEWDPF quaternion0 0.731263 -0.590394 -0.323691 0.109152
DOCKED: USER    NEWDPF axisangle0 0.735658 -0.593942 -0.325637 167.467122
DOCKED: USER    NEWDPF quat0 0.735658 -0.593942 -0.325637 167.467122
DOCKED: USER  keepresnum = 1 
DOCKED: USER  
DOCKED: USER                              x       y       z     vdW  Elec       q    Type
DOCKED: USER                           _______ _______ _______ _____ _____    ______ ____
DOCKED: ROOT
DOCKED: ATOM      1  V1  VO4 A   1     -35.915 -20.016 -43.222 +1.09 +0.81    +1.500 Zn
DOCKED: ATOM      2  O1  VO4 A   1     -37.112 -20.551 -44.380 -0.28 -1.20    -0.750 OA
DOCKED: ATOM      3  O2  VO4 A   1     -34.529 -21.082 -43.281 -0.59 -0.46    -0.750 OA
DOCKED: ATOM      4  O3  VO4 A   1     -36.604 -20.044 -41.614 +0.15 -0.15    -0.750 OA
DOCKED: ATOM      5  O4  VO4 A   1     -35.413 -18.386 -43.613 -0.43 -0.42    -0.750 OA
DOCKED: ENDROOT
DOCKED: TORSDOF 0
DOCKED: TER
DOCKED: ENDMDL
________________________________________________________________________________


	BEGINNING GENETIC ALGORITHM DOCKING 18 of 50
Run: 18 Seed: 1089336590 1312127654 [ Run 18 of 50 GA/GALS ]
Beginning LAMARCKIAN GENETIC ALGORITHM (LGA), with a maximum of 250000 energy evaluations.

Final-Value: -1.489


	FINAL GENETIC ALGORITHM DOCKED STATE
	_______________________________________________


Detailed state:  trans -35.787 -20.129 -43.197 quatxyzw -0.441492 0.017385 0.211415 -0.871829 center 0.000 0.000 0.000 ntor 0
State:	-35.787 -20.129 -43.197  -0.901  0.035  0.432 -58.656  

DOCKED: MODEL       18
DOCKED: USER    Run = 18
DOCKED: USER    DPF = pocket_small.dpf
DOCKED: USER  
DOCKED: USER    Estimated Free Energy of Binding    =   -1.49 kcal/mol  [=(1)+(2)+(3)-(4)]
DOCKED: USER    Estimated Inhibition Constant, Ki   =   81.04 mM (millimolar)  [Temperature = 298.15 K]
DOCKED: USER    
DOCKED: USER    (1) Final Intermolecular Energy     =   -1.49 kcal/mol
DOCKED: USER        vdW + Hbond + desolv Energy     =   -0.13 kcal/mol
DOCKED: USER        Electrostatic Energy            =   -1.36 kcal/mol
DOCKED: USER    (2) Final Total Internal Energy     =   +0.00 kcal/mol
DOCKED: USER    (3) Torsional Free Energy           =   +0.00 kcal/mol
DOCKED: USER    (4) Unbound System's Energy  [=(2)] =   +0.00 kcal/mol
DOCKED: USER    
DOCKED: USER    
DOCKED: USER    NEWDPF move ../ligands/orthovanadate.pdbqt
DOCKED: USER    NEWDPF about 0.000000 0.000000 0.000000
DOCKED: USER    NEWDPF tran0 -35.787426 -20.128772 -43.196605
DOCKED: USER    NEWDPF quaternion0 -0.441492 0.017385 0.211415 -0.871829
DOCKED: USER    NEWDPF axisangle0 -0.901354 0.035494 0.431626 -58.656213
DOCKED: USER    NEWDPF quat0 -0.901354 0.035494 0.431626 -58.656213
DOCKED: USER  keepresnum = 1 
DOCKED: USER  
DOCKED: USER                              x       y       z     vdW  Elec       q    Type
DOCKED: USER                           _______ _______ _______ _____ _____    ______ ____
DOCKED: ROOT
DOCKED: ATOM      1  V1  VO4 A   1     -35.787 -20.129 -43.197 +1.09 +0.79    +1.500 Zn
DOCKED: ATOM      2  O1  VO4 A   1     -35.414 -18.461 -43.570 -0.44 -0.43    -0.750 OA
DOCKED: ATOM      3  O2  VO4 A   1     -34.323 -21.083 -43.261 -0.58 -0.48    -0.750 OA
DOCKED: ATOM      4  O3  VO4 A   1     -36.936 -20.745 -44.363 -0.35 -1.10    -0.750 OA
DOCKED: ATOM      5  O4  VO4 A   1     -36.477 -20.227 -41.592 +0.15 -0.15    -0.750 OA
DOCKED: ENDROOT
DOCKED: TORSDOF 0
DOCKED: TER
DOCKED: ENDMDL
________________________________________________________________________________


	BEGINNING GENETIC ALGORITHM DOCKING 19 of 50
Run: 19 Seed: 1071063731 1690408618 [ Run 19 of 50 GA/GALS ]
Beginning LAMARCKIAN GENETIC ALGORITHM (LGA), with a maximum of 250000 energy evaluations.

Final-Value: -1.471


	FINAL GENETIC ALGORITHM DOCKED STATE
	_______________________________________________


Detailed state:  trans -35.788 -20.113 -43.180 quatxyzw -0.875105 -0.217593 0.007078 0.432198 center 0.000 0.000 0.000 ntor 0
State:	-35.788 -20.113 -43.180  -0.970 -0.241  0.008 128.786  

DOCKED: MODEL       19
DOCKED: USER    Run = 19
DOCKED: USER    DPF = pocket_small.dpf
DOCKED: USER  
DOCKED: USER    Estimated Free Energy of Binding    =   -1.47 kcal/mol  [=(1)+(2)+(3)-(4)]
DOCKED: USER    Estimated Inhibition Constant, Ki   =   83.49 mM (millimolar)  [Temperature = 298.15 K]
DOCKED: USER    
DOCKED: USER    (1) Final Intermolecular Energy     =   -1.47 kcal/mol
DOCKED: USER        vdW + Hbond + desolv Energy     =   -0.12 kcal/mol
DOCKED: USER        Electrostatic Energy            =   -1.35 kcal/mol
DOCKED: USER    (2) Final Total Internal Energy     =   +0.00 kcal/mol
DOCKED: USER    (3) Torsional Free Energy           =   +0.00 kcal/mol
DOCKED: USER    (4) Unbound System's Energy  [=(2)] =   +0.00 kcal/mol
DOCKED: USER    
DOCKED: USER    
DOCKED: USER    NEWDPF move ../ligands/orthovanadate.pdbqt
DOCKED: USER    NEWDPF about 0.000000 0.000000 0.000000
DOCKED: USER    NEWDPF tran0 -35.787978 -20.113243 -43.180316
DOCKED: USER    NEWDPF quaternion0 -0.875105 -0.217593 0.007078 0.432198
DOCKED: USER    NEWDPF axisangle0 -0.970421 -0.241293 0.007849 128.785718
DOCKED: USER    NEWDPF quat0 -0.970421 -0.241293 0.007849 128.785718
DOCKED: USER  keepresnum = 1 
DOCKED: USER  
DOCKED: USER                              x       y       z     vdW  Elec       q    Type
DOCKED: USER                           _______ _______ _______ _____ _____    ______ ____
DOCKED: ROOT
DOCKED: ATOM      1  V1  VO4 A   1     -35.788 -20.113 -43.180 +1.09 +0.78    +1.500 Zn
DOCKED: ATOM      2  O1  VO4 A   1     -34.305 -21.039 -43.254 -0.58 -0.47    -0.750 OA
DOCKED: ATOM      3  O2  VO4 A   1     -35.442 -18.431 -43.511 -0.43 -0.40    -0.750 OA
DOCKED: ATOM      4  O3  VO4 A   1     -36.489 -20.262 -41.584 +0.15 -0.15    -0.750 OA
DOCKED: ATOM      5  O4  VO4 A   1     -36.916 -20.722 -44.371 -0.36 -1.11    -0.750 OA
DOCKED: ENDROOT
DOCKED: TORSDOF 0
DOCKED: TER
DOCKED: ENDMDL
________________________________________________________________________________


	BEGINNING GENETIC ALGORITHM DOCKING 20 of 50
Run: 20 Seed: 2110815705 6726664 [ Run 20 of 50 GA/GALS ]
Beginning LAMARCKIAN GENETIC ALGORITHM (LGA), with a maximum of 250000 energy evaluations.

Final-Value: -1.468


	FINAL GENETIC ALGORITHM DOCKED STATE
	_______________________________________________


Detailed state:  trans -35.969 -19.962 -43.275 quatxyzw -0.601292 -0.706406 -0.114308 -0.355488 center 0.000 0.000 0.000 ntor 0
State:	-35.969 -19.962 -43.275  -0.643 -0.756 -0.122 -138.353  

DOCKED: MODEL       20
DOCKED: USER    Run = 20
DOCKED: USER    DPF = pocket_small.dpf
DOCKED: USER  
DOCKED: USER    Estimated Free Energy of Binding    =   -1.47 kcal/mol  [=(1)+(2)+(3)-(4)]
DOCKED: USER    Estimated Inhibition Constant, Ki   =   83.97 mM (millimolar)  [Temperature = 298.15 K]
DOCKED: USER    
DOCKED: USER    (1) Final Intermolecular Energy     =   -1.47 kcal/mol
DOCKED: USER        vdW + Hbond + desolv Energy     =   +0.02 kcal/mol
DOCKED: USER        Electrostatic Energy            =   -1.49 kcal/mol
DOCKED: USER    (2) Final Total Internal Energy     =   +0.00 kcal/mol
DOCKED: USER    (3) Torsional Free Energy           =   +0.00 kcal/mol
DOCKED: USER    (4) Unbound System's Energy  [=(2)] =   +0.00 kcal/mol
DOCKED: USER    
DOCKED: USER    
DOCKED: USER    NEWDPF move ../ligands/orthovanadate.pdbqt
DOCKED: USER    NEWDPF about 0.000000 0.000000 0.000000
DOCKED: USER    NEWDPF tran0 -35.968724 -19.961578 -43.275070
DOCKED: USER    NEWDPF quaternion0 -0.601292 -0.706406 -0.114308 -0.355488
DOCKED: USER    NEWDPF axisangle0 -0.643313 -0.755773 -0.122296 -138.353323
DOCKED: USER    NEWDPF quat0 -0.643313 -0.755773 -0.122296 -138.353323
DOCKED: USER  keepresnum = 1 
DOCKED: USER  
DOCKED: USER                              x       y       z     vdW  Elec       q    Type
DOCKED: USER                           _______ _______ _______ _____ _____    ______ ____
DOCKED: ROOT
DOCKED: ATOM      1  V1  VO4 A   1     -35.969 -19.962 -43.275 +1.09 +0.84    +1.500 Zn
DOCKED: ATOM      2  O1  VO4 A   1     -35.421 -18.337 -43.626 -0.43 -0.42    -0.750 OA
DOCKED: ATOM      3  O2  VO4 A   1     -36.565 -20.034 -41.632 +0.15 -0.15    -0.750 OA
DOCKED: ATOM      4  O3  VO4 A   1     -34.636 -21.079 -43.462 -0.60 -0.49    -0.750 OA
DOCKED: ATOM      5  O4  VO4 A   1     -37.253 -20.396 -44.381 -0.19 -1.27    -0.750 OA
DOCKED: ENDROOT
DOCKED: TORSDOF 0
DOCKED: TER
DOCKED: ENDMDL
________________________________________________________________________________


	BEGINNING GENETIC ALGORITHM DOCKING 21 of 50
Run: 21 Seed: 1884783406 1962879810 [ Run 21 of 50 GA/GALS ]
Beginning LAMARCKIAN GENETIC ALGORITHM (LGA), with a maximum of 250000 energy evaluations.

Final-Value: -1.480


	FINAL GENETIC ALGORITHM DOCKED STATE
	_______________________________________________


Detailed state:  trans -35.902 -20.018 -43.214 quatxyzw 0.178960 -0.872509 0.453476 -0.032563 center 0.000 0.000 0.000 ntor 0
State:	-35.902 -20.018 -43.214   0.179 -0.873  0.454 -176.268  

DOCKED: MODEL       21
DOCKED: USER    Run = 21
DOCKED: USER    DPF = pocket_small.dpf
DOCKED: USER  
DOCKED: USER    Estimated Free Energy of Binding    =   -1.48 kcal/mol  [=(1)+(2)+(3)-(4)]
DOCKED: USER    Estimated Inhibition Constant, Ki   =   82.26 mM (millimolar)  [Temperature = 298.15 K]
DOCKED: USER    
DOCKED: USER    (1) Final Intermolecular Energy     =   -1.48 kcal/mol
DOCKED: USER        vdW + Hbond + desolv Energy     =   -0.07 kcal/mol
DOCKED: USER        Electrostatic Energy            =   -1.41 kcal/mol
DOCKED: USER    (2) Final Total Internal Energy     =   +0.00 kcal/mol
DOCKED: USER    (3) Torsional Free Energy           =   +0.00 kcal/mol
DOCKED: USER    (4) Unbound System's Energy  [=(2)] =   +0.00 kcal/mol
DOCKED: USER    
DOCKED: USER    
DOCKED: USER    NEWDPF move ../ligands/orthovanadate.pdbqt
DOCKED: USER    NEWDPF about 0.000000 0.000000 0.000000
DOCKED: USER    NEWDPF tran0 -35.901637 -20.017666 -43.213538
DOCKED: USER    NEWDPF quaternion0 0.178960 -0.872509 0.453476 -0.032563
DOCKED: USER    NEWDPF axisangle0 0.179055 -0.872972 0.453717 -176.267895
DOCKED: USER    NEWDPF quat0 0.179055 -0.872972 0.453717 -176.267895
DOCKED: USER  keepresnum = 1 
DOCKED: USER  
DOCKED: USER                              x       y       z     vdW  Elec       q    Type
DOCKED: USER                           _______ _______ _______ _____ _____    ______ ____
DOCKED: ROOT
DOCKED: ATOM      1  V1  VO4 A   1     -35.902 -20.018 -43.214 +1.09 +0.80    +1.500 Zn
DOCKED: ATOM      2  O1  VO4 A   1     -37.084 -20.584 -44.372 -0.29 -1.18    -0.750 OA
DOCKED: ATOM      3  O2  VO4 A   1     -36.606 -20.022 -41.612 +0.16 -0.15    -0.750 OA
DOCKED: ATOM      4  O3  VO4 A   1     -35.410 -18.391 -43.630 -0.43 -0.43    -0.750 OA
DOCKED: ATOM      5  O4  VO4 A   1     -34.507 -21.073 -43.240 -0.59 -0.45    -0.750 OA
DOCKED: ENDROOT
DOCKED: TORSDOF 0
DOCKED: TER
DOCKED: ENDMDL
________________________________________________________________________________


	BEGINNING GENETIC ALGORITHM DOCKING 22 of 50
Run: 22 Seed: 1792986772 1241848997 [ Run 22 of 50 GA/GALS ]
Beginning LAMARCKIAN GENETIC ALGORITHM (LGA), with a maximum of 250000 energy evaluations.

Final-Value: -1.500


	FINAL GENETIC ALGORITHM DOCKED STATE
	_______________________________________________


Detailed state:  trans -35.795 -20.122 -43.209 quatxyzw 0.100174 0.324843 -0.557805 -0.757163 center 0.000 0.000 0.000 ntor 0
State:	-35.795 -20.122 -43.209   0.153  0.497 -0.854 -81.571  

DOCKED: MODEL       22
DOCKED: USER    Run = 22
DOCKED: USER    DPF = pocket_small.dpf
DOCKED: USER  
DOCKED: USER    Estimated Free Energy of Binding    =   -1.50 kcal/mol  [=(1)+(2)+(3)-(4)]
DOCKED: USER    Estimated Inhibition Constant, Ki   =   79.57 mM (millimolar)  [Temperature = 298.15 K]
DOCKED: USER    
DOCKED: USER    (1) Final Intermolecular Energy     =   -1.50 kcal/mol
DOCKED: USER        vdW + Hbond + desolv Energy     =   -0.13 kcal/mol
DOCKED: USER        Electrostatic Energy            =   -1.37 kcal/mol
DOCKED: USER    (2) Final Total Internal Energy     =   +0.00 kcal/mol
DOCKED: USER    (3) Torsional Free Energy           =   +0.00 kcal/mol
DOCKED: USER    (4) Unbound System's Energy  [=(2)] =   +0.00 kcal/mol
DOCKED: USER    
DOCKED: USER    
DOCKED: USER    NEWDPF move ../ligands/orthovanadate.pdbqt
DOCKED: USER    NEWDPF about 0.000000 0.000000 0.000000
DOCKED: USER    NEWDPF tran0 -35.794569 -20.121540 -43.209316
DOCKED: USER    NEWDPF quaternion0 0.100174 0.324843 -0.557805 -0.757163
DOCKED: USER    NEWDPF axisangle0 0.153352 0.497290 -0.853924 -81.570522
DOCKED: USER    NEWDPF quat0 0.153352 0.497290 -0.853924 -81.570522
DOCKED: USER  keepresnum = 1 
DOCKED: USER  
DOCKED: USER                              x       y       z     vdW  Elec       q    Type
DOCKED: USER                           _______ _______ _______ _____ _____    ______ ____
DOCKED: ROOT
DOCKED: ATOM      1  V1  VO4 A   1     -35.795 -20.122 -43.209 +1.09 +0.80    +1.500 Zn
DOCKED: ATOM      2  O1  VO4 A   1     -34.323 -21.067 -43.255 -0.59 -0.47    -0.750 OA
DOCKED: ATOM      3  O2  VO4 A   1     -36.929 -20.751 -44.383 -0.34 -1.12    -0.750 OA
DOCKED: ATOM      4  O3  VO4 A   1     -35.428 -18.454 -43.589 -0.44 -0.43    -0.750 OA
DOCKED: ATOM      5  O4  VO4 A   1     -36.498 -20.215 -41.610 +0.15 -0.15    -0.750 OA
DOCKED: ENDROOT
DOCKED: TORSDOF 0
DOCKED: TER
DOCKED: ENDMDL
________________________________________________________________________________


	BEGINNING GENETIC ALGORITHM DOCKING 23 of 50
Run: 23 Seed: 1129755131 1425124310 [ Run 23 of 50 GA/GALS ]
Beginning LAMARCKIAN GENETIC ALGORITHM (LGA), with a maximum of 250000 energy evaluations.

Final-Value: -1.504


	FINAL GENETIC ALGORITHM DOCKED STATE
	_______________________________________________


Detailed state:  trans -35.811 -20.111 -43.212 quatxyzw 0.115653 0.769673 0.304492 -0.549101 center 0.000 0.000 0.000 ntor 0
State:	-35.811 -20.111 -43.212   0.138  0.921  0.364 -113.389  

DOCKED: MODEL       23
DOCKED: USER    Run = 23
DOCKED: USER    DPF = pocket_small.dpf
DOCKED: USER  
DOCKED: USER    Estimated Free Energy of Binding    =   -1.50 kcal/mol  [=(1)+(2)+(3)-(4)]
DOCKED: USER    Estimated Inhibition Constant, Ki   =   79.00 mM (millimolar)  [Temperature = 298.15 K]
DOCKED: USER    
DOCKED: USER    (1) Final Intermolecular Energy     =   -1.50 kcal/mol
DOCKED: USER        vdW + Hbond + desolv Energy     =   -0.12 kcal/mol
DOCKED: USER        Electrostatic Energy            =   -1.38 kcal/mol
DOCKED: USER    (2) Final Total Internal Energy     =   +0.00 kcal/mol
DOCKED: USER    (3) Torsional Free Energy           =   +0.00 kcal/mol
DOCKED: USER    (4) Unbound System's Energy  [=(2)] =   +0.00 kcal/mol
DOCKED: USER    
DOCKED: USER    
DOCKED: USER    NEWDPF move ../ligands/orthovanadate.pdbqt
DOCKED: USER    NEWDPF about 0.000000 0.000000 0.000000
DOCKED: USER    NEWDPF tran0 -35.810714 -20.110971 -43.212290
DOCKED: USER    NEWDPF quaternion0 0.115653 0.769673 0.304492 -0.549101
DOCKED: USER    NEWDPF axisangle0 0.138382 0.920931 0.364331 -113.389286
DOCKED: USER    NEWDPF quat0 0.138382 0.920931 0.364331 -113.389286
DOCKED: USER  keepresnum = 1 
DOCKED: USER  
DOCKED: USER                              x       y       z     vdW  Elec       q    Type
DOCKED: USER                           _______ _______ _______ _____ _____    ______ ____
DOCKED: ROOT
DOCKED: ATOM      1  V1  VO4 A   1     -35.811 -20.111 -43.212 +1.09 +0.80    +1.500 Zn
DOCKED: ATOM      2  O1  VO4 A   1     -35.418 -18.453 -43.607 -0.44 -0.44    -0.750 OA
DOCKED: ATOM      3  O2  VO4 A   1     -36.952 -20.734 -44.383 -0.33 -1.13    -0.750 OA
DOCKED: ATOM      4  O3  VO4 A   1     -36.520 -20.178 -41.614 +0.15 -0.15    -0.750 OA
DOCKED: ATOM      5  O4  VO4 A   1     -34.354 -21.079 -43.245 -0.59 -0.47    -0.750 OA
DOCKED: ENDROOT
DOCKED: TORSDOF 0
DOCKED: TER
DOCKED: ENDMDL
________________________________________________________________________________


	BEGINNING GENETIC ALGORITHM DOCKING 24 of 50
Run: 24 Seed: 504155298 343380507 [ Run 24 of 50 GA/GALS ]
Beginning LAMARCKIAN GENETIC ALGORITHM (LGA), with a maximum of 250000 energy evaluations.

Final-Value: -1.506


	FINAL GENETIC ALGORITHM DOCKED STATE
	_______________________________________________


Detailed state:  trans -35.800 -20.115 -43.216 quatxyzw 0.319017 -0.095429 0.756684 -0.562629 center 0.000 0.000 0.000 ntor 0
State:	-35.800 -20.115 -43.216   0.386 -0.115  0.915 -111.524  

DOCKED: MODEL       24
DOCKED: USER    Run = 24
DOCKED: USER    DPF = pocket_small.dpf
DOCKED: USER  
DOCKED: USER    Estimated Free Energy of Binding    =   -1.51 kcal/mol  [=(1)+(2)+(3)-(4)]
DOCKED: USER    Estimated Inhibition Constant, Ki   =   78.74 mM (millimolar)  [Temperature = 298.15 K]
DOCKED: USER    
DOCKED: USER    (1) Final Intermolecular Energy     =   -1.51 kcal/mol
DOCKED: USER        vdW + Hbond + desolv Energy     =   -0.14 kcal/mol
DOCKED: USER        Electrostatic Energy            =   -1.37 kcal/mol
DOCKED: USER    (2) Final Total Internal Energy     =   +0.00 kcal/mol
DOCKED: USER    (3) Torsional Free Energy           =   +0.00 kcal/mol
DOCKED: USER    (4) Unbound System's Energy  [=(2)] =   +0.00 kcal/mol
DOCKED: USER    
DOCKED: USER    
DOCKED: USER    NEWDPF move ../ligands/orthovanadate.pdbqt
DOCKED: USER    NEWDPF about 0.000000 0.000000 0.000000
DOCKED: USER    NEWDPF tran0 -35.799620 -20.114926 -43.216144
DOCKED: USER    NEWDPF quaternion0 0.319017 -0.095429 0.756684 -0.562629
DOCKED: USER    NEWDPF axisangle0 0.385888 -0.115432 0.915296 -111.524419
DOCKED: USER    NEWDPF quat0 0.385888 -0.115432 0.915296 -111.524419
DOCKED: USER  keepresnum = 1 
DOCKED: USER  
DOCKED: USER                              x       y       z     vdW  Elec       q    Type
DOCKED: USER                           _______ _______ _______ _____ _____    ______ ____
DOCKED: ROOT
DOCKED: ATOM      1  V1  VO4 A   1     -35.800 -20.115 -43.216 +1.09 +0.80    +1.500 Zn
DOCKED: ATOM      2  O1  VO4 A   1     -36.507 -20.177 -41.617 +0.15 -0.15    -0.750 OA
DOCKED: ATOM      3  O2  VO4 A   1     -35.422 -18.456 -43.623 -0.45 -0.44    -0.750 OA
DOCKED: ATOM      4  O3  VO4 A   1     -36.935 -20.757 -44.382 -0.34 -1.11    -0.750 OA
DOCKED: ATOM      5  O4  VO4 A   1     -34.334 -21.070 -43.243 -0.59 -0.47    -0.750 OA
DOCKED: ENDROOT
DOCKED: TORSDOF 0
DOCKED: TER
DOCKED: ENDMDL
________________________________________________________________________________


	BEGINNING GENETIC ALGORITHM DOCKING 25 of 50
Run: 25 Seed: 789991139 480696631 [ Run 25 of 50 GA/GALS ]
Beginning LAMARCKIAN GENETIC ALGORITHM (LGA), with a maximum of 250000 energy evaluations.

Final-Value: -1.501


	FINAL GENETIC ALGORITHM DOCKED STATE
	_______________________________________________


Detailed state:  trans -35.787 -20.123 -43.196 quatxyzw -0.105895 -0.330114 0.556609 0.754982 center 0.000 0.000 0.000 ntor 0
State:	-35.787 -20.123 -43.196  -0.161 -0.503  0.849 81.952  

DOCKED: MODEL       25
DOCKED: USER    Run = 25
DOCKED: USER    DPF = pocket_small.dpf
DOCKED: USER  
DOCKED: USER    Estimated Free Energy of Binding    =   -1.50 kcal/mol  [=(1)+(2)+(3)-(4)]
DOCKED: USER    Estimated Inhibition Constant, Ki   =   79.36 mM (millimolar)  [Temperature = 298.15 K]
DOCKED: USER    
DOCKED: USER    (1) Final Intermolecular Energy     =   -1.50 kcal/mol
DOCKED: USER        vdW + Hbond + desolv Energy     =   -0.13 kcal/mol
DOCKED: USER        Electrostatic Energy            =   -1.37 kcal/mol
DOCKED: USER    (2) Final Total Internal Energy     =   +0.00 kcal/mol
DOCKED: USER    (3) Torsional Free Energy           =   +0.00 kcal/mol
DOCKED: USER    (4) Unbound System's Energy  [=(2)] =   +0.00 kcal/mol
DOCKED: USER    
DOCKED: USER    
DOCKED: USER    NEWDPF move ../ligands/orthovanadate.pdbqt
DOCKED: USER    NEWDPF about 0.000000 0.000000 0.000000
DOCKED: USER    NEWDPF tran0 -35.786567 -20.123391 -43.196168
DOCKED: USER    NEWDPF quaternion0 -0.105895 -0.330114 0.556609 0.754982
DOCKED: USER    NEWDPF axisangle0 -0.161488 -0.503417 0.848819 81.952492
DOCKED: USER    NEWDPF quat0 -0.161488 -0.503417 0.848819 81.952492
DOCKED: USER  keepresnum = 1 
DOCKED: USER  
DOCKED: USER                              x       y       z     vdW  Elec       q    Type
DOCKED: USER                           _______ _______ _______ _____ _____    ______ ____
DOCKED: ROOT
DOCKED: ATOM      1  V1  VO4 A   1     -35.787 -20.123 -43.196 +1.09 +0.79    +1.500 Zn
DOCKED: ATOM      2  O1  VO4 A   1     -34.319 -21.073 -43.261 -0.58 -0.47    -0.750 OA
DOCKED: ATOM      3  O2  VO4 A   1     -36.926 -20.731 -44.376 -0.35 -1.12    -0.750 OA
DOCKED: ATOM      4  O3  VO4 A   1     -35.416 -18.451 -43.551 -0.44 -0.42    -0.750 OA
DOCKED: ATOM      5  O4  VO4 A   1     -36.486 -20.239 -41.597 +0.15 -0.15    -0.750 OA
DOCKED: ENDROOT
DOCKED: TORSDOF 0
DOCKED: TER
DOCKED: ENDMDL
________________________________________________________________________________


	BEGINNING GENETIC ALGORITHM DOCKING 26 of 50
Run: 26 Seed: 571559242 1808807865 [ Run 26 of 50 GA/GALS ]
Beginning LAMARCKIAN GENETIC ALGORITHM (LGA), with a maximum of 250000 energy evaluations.

Final-Value: -1.483


	FINAL GENETIC ALGORITHM DOCKED STATE
	_______________________________________________


Detailed state:  trans -35.845 -20.129 -43.178 quatxyzw 0.008348 0.427814 0.879704 0.207428 center 0.000 0.000 0.000 ntor 0
State:	-35.845 -20.129 -43.178   0.009  0.437  0.899 156.057  

DOCKED: MODEL       26
DOCKED: USER    Run = 26
DOCKED: USER    DPF = pocket_small.dpf
DOCKED: USER  
DOCKED: USER    Estimated Free Energy of Binding    =   -1.48 kcal/mol  [=(1)+(2)+(3)-(4)]
DOCKED: USER    Estimated Inhibition Constant, Ki   =   81.79 mM (millimolar)  [Temperature = 298.15 K]
DOCKED: USER    
DOCKED: USER    (1) Final Intermolecular Energy     =   -1.48 kcal/mol
DOCKED: USER        vdW + Hbond + desolv Energy     =   -0.11 kcal/mol
DOCKED: USER        Electrostatic Energy            =   -1.37 kcal/mol
DOCKED: USER    (2) Final Total Internal Energy     =   +0.00 kcal/mol
DOCKED: USER    (3) Torsional Free Energy           =   +0.00 kcal/mol
DOCKED: USER    (4) Unbound System's Energy  [=(2)] =   +0.00 kcal/mol
DOCKED: USER    
DOCKED: USER    
DOCKED: USER    NEWDPF move ../ligands/orthovanadate.pdbqt
DOCKED: USER    NEWDPF about 0.000000 0.000000 0.000000
DOCKED: USER    NEWDPF tran0 -35.845192 -20.128974 -43.178338
DOCKED: USER    NEWDPF quaternion0 0.008348 0.427814 0.879704 0.207428
DOCKED: USER    NEWDPF axisangle0 0.008534 0.437326 0.899263 156.056609
DOCKED: USER    NEWDPF quat0 0.008534 0.437326 0.899263 156.056609
DOCKED: USER  keepresnum = 1 
DOCKED: USER  
DOCKED: USER                              x       y       z     vdW  Elec       q    Type
DOCKED: USER                           _______ _______ _______ _____ _____    ______ ____
DOCKED: ROOT
DOCKED: ATOM      1  V1  VO4 A   1     -35.845 -20.129 -43.178 +1.09 +0.79    +1.500 Zn
DOCKED: ATOM      2  O1  VO4 A   1     -36.557 -20.280 -41.587 +0.15 -0.15    -0.750 OA
DOCKED: ATOM      3  O2  VO4 A   1     -36.980 -20.701 -44.381 -0.33 -1.14    -0.750 OA
DOCKED: ATOM      4  O3  VO4 A   1     -34.382 -21.085 -43.256 -0.59 -0.47    -0.750 OA
DOCKED: ATOM      5  O4  VO4 A   1     -35.462 -18.450 -43.489 -0.43 -0.40    -0.750 OA
DOCKED: ENDROOT
DOCKED: TORSDOF 0
DOCKED: TER
DOCKED: ENDMDL
________________________________________________________________________________


	BEGINNING GENETIC ALGORITHM DOCKING 27 of 50
Run: 27 Seed: 1846187170 412367204 [ Run 27 of 50 GA/GALS ]
Beginning LAMARCKIAN GENETIC ALGORITHM (LGA), with a maximum of 250000 energy evaluations.

Final-Value: -1.473


	FINAL GENETIC ALGORITHM DOCKED STATE
	_______________________________________________


Detailed state:  trans -35.926 -20.062 -43.210 quatxyzw 0.323042 -0.109972 0.735932 -0.584768 center 0.000 0.000 0.000 ntor 0
State:	-35.926 -20.062 -43.210   0.398 -0.136  0.907 -108.427  

DOCKED: MODEL       27
DOCKED: USER    Run = 27
DOCKED: USER    DPF = pocket_small.dpf
DOCKED: USER  
DOCKED: USER    Estimated Free Energy of Binding    =   -1.47 kcal/mol  [=(1)+(2)+(3)-(4)]
DOCKED: USER    Estimated Inhibition Constant, Ki   =   83.18 mM (millimolar)  [Temperature = 298.15 K]
DOCKED: USER    
DOCKED: USER    (1) Final Intermolecular Energy     =   -1.47 kcal/mol
DOCKED: USER        vdW + Hbond + desolv Energy     =   -0.06 kcal/mol
DOCKED: USER        Electrostatic Energy            =   -1.41 kcal/mol
DOCKED: USER    (2) Final Total Internal Energy     =   +0.00 kcal/mol
DOCKED: USER    (3) Torsional Free Energy           =   +0.00 kcal/mol
DOCKED: USER    (4) Unbound System's Energy  [=(2)] =   +0.00 kcal/mol
DOCKED: USER    
DOCKED: USER    
DOCKED: USER    NEWDPF move ../ligands/orthovanadate.pdbqt
DOCKED: USER    NEWDPF about 0.000000 0.000000 0.000000
DOCKED: USER    NEWDPF tran0 -35.925579 -20.061501 -43.210329
DOCKED: USER    NEWDPF quaternion0 0.323042 -0.109972 0.735932 -0.584768
DOCKED: USER    NEWDPF axisangle0 0.398227 -0.135568 0.907214 -108.426770
DOCKED: USER    NEWDPF quat0 0.398227 -0.135568 0.907214 -108.426770
DOCKED: USER  keepresnum = 1 
DOCKED: USER  
DOCKED: USER                              x       y       z     vdW  Elec       q    Type
DOCKED: USER                           _______ _______ _______ _____ _____    ______ ____
DOCKED: ROOT
DOCKED: ATOM      1  V1  VO4 A   1     -35.926 -20.062 -43.210 +1.09 +0.81    +1.500 Zn
DOCKED: ATOM      2  O1  VO4 A   1     -36.625 -20.104 -41.607 +0.16 -0.15    -0.750 OA
DOCKED: ATOM      3  O2  VO4 A   1     -35.443 -18.424 -43.593 -0.44 -0.42    -0.750 OA
DOCKED: ATOM      4  O3  VO4 A   1     -37.109 -20.609 -44.377 -0.28 -1.18    -0.750 OA
DOCKED: ATOM      5  O4  VO4 A   1     -34.526 -21.109 -43.264 -0.58 -0.46    -0.750 OA
DOCKED: ENDROOT
DOCKED: TORSDOF 0
DOCKED: TER
DOCKED: ENDMDL
________________________________________________________________________________


	BEGINNING GENETIC ALGORITHM DOCKING 28 of 50
Run: 28 Seed: 231776279 1035853219 [ Run 28 of 50 GA/GALS ]
Beginning LAMARCKIAN GENETIC ALGORITHM (LGA), with a maximum of 250000 energy evaluations.

Final-Value: -1.475


	FINAL GENETIC ALGORITHM DOCKED STATE
	_______________________________________________


Detailed state:  trans -35.878 -20.113 -43.195 quatxyzw 0.753709 -0.561433 -0.325048 0.105164 center 0.000 0.000 0.000 ntor 0
State:	-35.878 -20.113 -43.195   0.758 -0.565 -0.327 167.927  

DOCKED: MODEL       28
DOCKED: USER    Run = 28
DOCKED: USER    DPF = pocket_small.dpf
DOCKED: USER  
DOCKED: USER    Estimated Free Energy of Binding    =   -1.48 kcal/mol  [=(1)+(2)+(3)-(4)]
DOCKED: USER    Estimated Inhibition Constant, Ki   =   82.93 mM (millimolar)  [Temperature = 298.15 K]
DOCKED: USER    
DOCKED: USER    (1) Final Intermolecular Energy     =   -1.48 kcal/mol
DOCKED: USER        vdW + Hbond + desolv Energy     =   -0.11 kcal/mol
DOCKED: USER        Electrostatic Energy            =   -1.36 kcal/mol
DOCKED: USER    (2) Final Total Internal Energy     =   +0.00 kcal/mol
DOCKED: USER    (3) Torsional Free Energy           =   +0.00 kcal/mol
DOCKED: USER    (4) Unbound System's Energy  [=(2)] =   +0.00 kcal/mol
DOCKED: USER    
DOCKED: USER    
DOCKED: USER    NEWDPF move ../ligands/orthovanadate.pdbqt
DOCKED: USER    NEWDPF about 0.000000 0.000000 0.000000
DOCKED: USER    NEWDPF tran0 -35.877593 -20.113499 -43.194668
DOCKED: USER    NEWDPF quaternion0 0.753709 -0.561433 -0.325048 0.105164
DOCKED: USER    NEWDPF axisangle0 0.757912 -0.564563 -0.326860 167.926737
DOCKED: USER    NEWDPF quat0 0.757912 -0.564563 -0.326860 167.926737
DOCKED: USER  keepresnum = 1 
DOCKED: USER  
DOCKED: USER                              x       y       z     vdW  Elec       q    Type
DOCKED: USER                           _______ _______ _______ _____ _____    ______ ____
DOCKED: ROOT
DOCKED: ATOM      1  V1  VO4 A   1     -35.878 -20.113 -43.195 +1.09 +0.80    +1.500 Zn
DOCKED: ATOM      2  O1  VO4 A   1     -37.017 -20.721 -44.375 -0.32 -1.13    -0.750 OA
DOCKED: ATOM      3  O2  VO4 A   1     -34.418 -21.077 -43.243 -0.59 -0.46    -0.750 OA
DOCKED: ATOM      4  O3  VO4 A   1     -36.586 -20.207 -41.598 +0.15 -0.15    -0.750 OA
DOCKED: ATOM      5  O4  VO4 A   1     -35.489 -18.448 -43.563 -0.45 -0.41    -0.750 OA
DOCKED: ENDROOT
DOCKED: TORSDOF 0
DOCKED: TER
DOCKED: ENDMDL
________________________________________________________________________________


	BEGINNING GENETIC ALGORITHM DOCKING 29 of 50
Run: 29 Seed: 2130793359 1739705079 [ Run 29 of 50 GA/GALS ]
Beginning LAMARCKIAN GENETIC ALGORITHM (LGA), with a maximum of 250000 energy evaluations.

Final-Value: -1.486


	FINAL GENETIC ALGORITHM DOCKED STATE
	_______________________________________________


Detailed state:  trans -35.776 -20.118 -43.188 quatxyzw -0.117887 -0.767122 -0.322834 0.541668 center 0.000 0.000 0.000 ntor 0
State:	-35.776 -20.118 -43.188  -0.140 -0.913 -0.384 114.405  

DOCKED: MODEL       29
DOCKED: USER    Run = 29
DOCKED: USER    DPF = pocket_small.dpf
DOCKED: USER  
DOCKED: USER    Estimated Free Energy of Binding    =   -1.49 kcal/mol  [=(1)+(2)+(3)-(4)]
DOCKED: USER    Estimated Inhibition Constant, Ki   =   81.47 mM (millimolar)  [Temperature = 298.15 K]
DOCKED: USER    
DOCKED: USER    (1) Final Intermolecular Energy     =   -1.49 kcal/mol
DOCKED: USER        vdW + Hbond + desolv Energy     =   -0.13 kcal/mol
DOCKED: USER        Electrostatic Energy            =   -1.36 kcal/mol
DOCKED: USER    (2) Final Total Internal Energy     =   +0.00 kcal/mol
DOCKED: USER    (3) Torsional Free Energy           =   +0.00 kcal/mol
DOCKED: USER    (4) Unbound System's Energy  [=(2)] =   +0.00 kcal/mol
DOCKED: USER    
DOCKED: USER    
DOCKED: USER    NEWDPF move ../ligands/orthovanadate.pdbqt
DOCKED: USER    NEWDPF about 0.000000 0.000000 0.000000
DOCKED: USER    NEWDPF tran0 -35.775603 -20.117718 -43.187988
DOCKED: USER    NEWDPF quaternion0 -0.117887 -0.767122 -0.322834 0.541668
DOCKED: USER    NEWDPF axisangle0 -0.140242 -0.912597 -0.384055 114.405420
DOCKED: USER    NEWDPF quat0 -0.140242 -0.912597 -0.384055 114.405420
DOCKED: USER  keepresnum = 1 
DOCKED: USER  
DOCKED: USER                              x       y       z     vdW  Elec       q    Type
DOCKED: USER                           _______ _______ _______ _____ _____    ______ ____
DOCKED: ROOT
DOCKED: ATOM      1  V1  VO4 A   1     -35.776 -20.118 -43.188 +1.09 +0.79    +1.500 Zn
DOCKED: ATOM      2  O1  VO4 A   1     -35.419 -18.439 -43.528 -0.43 -0.41    -0.750 OA
DOCKED: ATOM      3  O2  VO4 A   1     -36.911 -20.724 -44.373 -0.36 -1.11    -0.750 OA
DOCKED: ATOM      4  O3  VO4 A   1     -36.473 -20.254 -41.589 +0.15 -0.15    -0.750 OA
DOCKED: ATOM      5  O4  VO4 A   1     -34.300 -21.054 -43.262 -0.58 -0.47    -0.750 OA
DOCKED: ENDROOT
DOCKED: TORSDOF 0
DOCKED: TER
DOCKED: ENDMDL
________________________________________________________________________________


	BEGINNING GENETIC ALGORITHM DOCKING 30 of 50
Run: 30 Seed: 1746205499 652280436 [ Run 30 of 50 GA/GALS ]
Beginning LAMARCKIAN GENETIC ALGORITHM (LGA), with a maximum of 250000 energy evaluations.

Final-Value: -1.481


	FINAL GENETIC ALGORITHM DOCKED STATE
	_______________________________________________


Detailed state:  trans -35.847 -20.110 -43.200 quatxyzw -0.114978 -0.769853 -0.308081 0.546985 center 0.000 0.000 0.000 ntor 0
State:	-35.847 -20.110 -43.200  -0.137 -0.920 -0.368 113.679  

DOCKED: MODEL       30
DOCKED: USER    Run = 30
DOCKED: USER    DPF = pocket_small.dpf
DOCKED: USER  
DOCKED: USER    Estimated Free Energy of Binding    =   -1.48 kcal/mol  [=(1)+(2)+(3)-(4)]
DOCKED: USER    Estimated Inhibition Constant, Ki   =   82.17 mM (millimolar)  [Temperature = 298.15 K]
DOCKED: USER    
DOCKED: USER    (1) Final Intermolecular Energy     =   -1.48 kcal/mol
DOCKED: USER        vdW + Hbond + desolv Energy     =   -0.12 kcal/mol
DOCKED: USER        Electrostatic Energy            =   -1.36 kcal/mol
DOCKED: USER    (2) Final Total Internal Energy     =   +0.00 kcal/mol
DOCKED: USER    (3) Torsional Free Energy           =   +0.00 kcal/mol
DOCKED: USER    (4) Unbound System's Energy  [=(2)] =   +0.00 kcal/mol
DOCKED: USER    
DOCKED: USER    
DOCKED: USER    NEWDPF move ../ligands/orthovanadate.pdbqt
DOCKED: USER    NEWDPF about 0.000000 0.000000 0.000000
DOCKED: USER    NEWDPF tran0 -35.846825 -20.109558 -43.200231
DOCKED: USER    NEWDPF quaternion0 -0.114978 -0.769853 -0.308081 0.546985
DOCKED: USER    NEWDPF axisangle0 -0.137346 -0.919620 -0.368015 113.679191
DOCKED: USER    NEWDPF quat0 -0.137346 -0.919620 -0.368015 113.679191
DOCKED: USER  keepresnum = 1 
DOCKED: USER  
DOCKED: USER                              x       y       z     vdW  Elec       q    Type
DOCKED: USER                           _______ _______ _______ _____ _____    ______ ____
DOCKED: ROOT
DOCKED: ATOM      1  V1  VO4 A   1     -35.847 -20.110 -43.200 +1.09 +0.80    +1.500 Zn
DOCKED: ATOM      2  O1  VO4 A   1     -35.465 -18.447 -43.587 -0.45 -0.42    -0.750 OA
DOCKED: ATOM      3  O2  VO4 A   1     -36.986 -20.734 -44.372 -0.33 -1.12    -0.750 OA
DOCKED: ATOM      4  O3  VO4 A   1     -36.552 -20.189 -41.601 +0.15 -0.15    -0.750 OA
DOCKED: ATOM      5  O4  VO4 A   1     -34.384 -21.068 -43.241 -0.59 -0.46    -0.750 OA
DOCKED: ENDROOT
DOCKED: TORSDOF 0
DOCKED: TER
DOCKED: ENDMDL
________________________________________________________________________________


	BEGINNING GENETIC ALGORITHM DOCKING 31 of 50
Run: 31 Seed: 650552896 1821434751 [ Run 31 of 50 GA/GALS ]
Beginning LAMARCKIAN GENETIC ALGORITHM (LGA), with a maximum of 250000 energy evaluations.

Final-Value: -1.500


	FINAL GENETIC ALGORITHM DOCKED STATE
	_______________________________________________


Detailed state:  trans -35.857 -20.088 -43.212 quatxyzw 0.868572 0.196785 -0.018908 -0.454422 center 0.000 0.000 0.000 ntor 0
State:	-35.857 -20.088 -43.212   0.975  0.221 -0.021 -125.944  

DOCKED: MODEL       31
DOCKED: USER    Run = 31
DOCKED: USER    DPF = pocket_small.dpf
DOCKED: USER  
DOCKED: USER    Estimated Free Energy of Binding    =   -1.50 kcal/mol  [=(1)+(2)+(3)-(4)]
DOCKED: USER    Estimated Inhibition Constant, Ki   =   79.53 mM (millimolar)  [Temperature = 298.15 K]
DOCKED: USER    
DOCKED: USER    (1) Final Intermolecular Energy     =   -1.50 kcal/mol
DOCKED: USER        vdW + Hbond + desolv Energy     =   -0.11 kcal/mol
DOCKED: USER        Electrostatic Energy            =   -1.39 kcal/mol
DOCKED: USER    (2) Final Total Internal Energy     =   +0.00 kcal/mol
DOCKED: USER    (3) Torsional Free Energy           =   +0.00 kcal/mol
DOCKED: USER    (4) Unbound System's Energy  [=(2)] =   +0.00 kcal/mol
DOCKED: USER    
DOCKED: USER    
DOCKED: USER    NEWDPF move ../ligands/orthovanadate.pdbqt
DOCKED: USER    NEWDPF about 0.000000 0.000000 0.000000
DOCKED: USER    NEWDPF tran0 -35.857045 -20.088031 -43.212197
DOCKED: USER    NEWDPF quaternion0 0.868572 0.196785 -0.018908 -0.454422
DOCKED: USER    NEWDPF axisangle0 0.975063 0.220912 -0.021226 -125.944437
DOCKED: USER    NEWDPF quat0 0.975063 0.220912 -0.021226 -125.944437
DOCKED: USER  keepresnum = 1 
DOCKED: USER  
DOCKED: USER                              x       y       z     vdW  Elec       q    Type
DOCKED: USER                           _______ _______ _______ _____ _____    ______ ____
DOCKED: ROOT
DOCKED: ATOM      1  V1  VO4 A   1     -35.857 -20.088 -43.212 +1.09 +0.80    +1.500 Zn
DOCKED: ATOM      2  O1  VO4 A   1     -34.416 -21.080 -43.228 -0.59 -0.46    -0.750 OA
DOCKED: ATOM      3  O2  VO4 A   1     -35.436 -18.441 -43.624 -0.45 -0.44    -0.750 OA
DOCKED: ATOM      4  O3  VO4 A   1     -36.573 -20.126 -41.616 +0.15 -0.15    -0.750 OA
DOCKED: ATOM      5  O4  VO4 A   1     -37.003 -20.706 -44.380 -0.32 -1.14    -0.750 OA
DOCKED: ENDROOT
DOCKED: TORSDOF 0
DOCKED: TER
DOCKED: ENDMDL
________________________________________________________________________________


	BEGINNING GENETIC ALGORITHM DOCKING 32 of 50
Run: 32 Seed: 2032986545 526389659 [ Run 32 of 50 GA/GALS ]
Beginning LAMARCKIAN GENETIC ALGORITHM (LGA), with a maximum of 250000 energy evaluations.

Final-Value: -1.463


	FINAL GENETIC ALGORITHM DOCKED STATE
	_______________________________________________


Detailed state:  trans -35.813 -20.100 -43.194 quatxyzw 0.866742 0.197639 -0.015587 -0.457661 center 0.000 0.000 0.000 ntor 0
State:	-35.813 -20.100 -43.194   0.975  0.222 -0.018 -125.527  

DOCKED: MODEL       32
DOCKED: USER    Run = 32
DOCKED: USER    DPF = pocket_small.dpf
DOCKED: USER  
DOCKED: USER    Estimated Free Energy of Binding    =   -1.46 kcal/mol  [=(1)+(2)+(3)-(4)]
DOCKED: USER    Estimated Inhibition Constant, Ki   =   84.69 mM (millimolar)  [Temperature = 298.15 K]
DOCKED: USER    
DOCKED: USER    (1) Final Intermolecular Energy     =   -1.46 kcal/mol
DOCKED: USER        vdW + Hbond + desolv Energy     =   -0.10 kcal/mol
DOCKED: USER        Electrostatic Energy            =   -1.36 kcal/mol
DOCKED: USER    (2) Final Total Internal Energy     =   +0.00 kcal/mol
DOCKED: USER    (3) Torsional Free Energy           =   +0.00 kcal/mol
DOCKED: USER    (4) Unbound System's Energy  [=(2)] =   +0.00 kcal/mol
DOCKED: USER    
DOCKED: USER    
DOCKED: USER    NEWDPF move ../ligands/orthovanadate.pdbqt
DOCKED: USER    NEWDPF about 0.000000 0.000000 0.000000
DOCKED: USER    NEWDPF tran0 -35.813439 -20.099536 -43.193562
DOCKED: USER    NEWDPF quaternion0 0.866742 0.197639 -0.015587 -0.457661
DOCKED: USER    NEWDPF axisangle0 0.974824 0.222284 -0.017531 -125.527402
DOCKED: USER    NEWDPF quat0 0.974824 0.222284 -0.017531 -125.527402
DOCKED: USER  keepresnum = 1 
DOCKED: USER  
DOCKED: USER                              x       y       z     vdW  Elec       q    Type
DOCKED: USER                           _______ _______ _______ _____ _____    ______ ____
DOCKED: ROOT
DOCKED: ATOM      1  V1  VO4 A   1     -35.813 -20.100 -43.194 +1.09 +0.79    +1.500 Zn
DOCKED: ATOM      2  O1  VO4 A   1     -34.367 -21.083 -43.195 -0.58 -0.45    -0.750 OA
DOCKED: ATOM      3  O2  VO4 A   1     -35.399 -18.452 -43.612 -0.42 -0.44    -0.750 OA
DOCKED: ATOM      4  O3  VO4 A   1     -36.539 -20.132 -41.602 +0.15 -0.15    -0.750 OA
DOCKED: ATOM      5  O4  VO4 A   1     -36.949 -20.731 -44.365 -0.34 -1.11    -0.750 OA
DOCKED: ENDROOT
DOCKED: TORSDOF 0
DOCKED: TER
DOCKED: ENDMDL
________________________________________________________________________________


	BEGINNING GENETIC ALGORITHM DOCKING 33 of 50
Run: 33 Seed: 1371957627 333020569 [ Run 33 of 50 GA/GALS ]
Beginning LAMARCKIAN GENETIC ALGORITHM (LGA), with a maximum of 250000 energy evaluations.

Final-Value: -1.484


	FINAL GENETIC ALGORITHM DOCKED STATE
	_______________________________________________


Detailed state:  trans -35.865 -20.081 -43.212 quatxyzw -0.770183 0.134861 -0.549040 -0.295273 center 0.000 0.000 0.000 ntor 0
State:	-35.865 -20.081 -43.212  -0.806  0.141 -0.575 -145.652  

DOCKED: MODEL       33
DOCKED: USER    Run = 33
DOCKED: USER    DPF = pocket_small.dpf
DOCKED: USER  
DOCKED: USER    Estimated Free Energy of Binding    =   -1.48 kcal/mol  [=(1)+(2)+(3)-(4)]
DOCKED: USER    Estimated Inhibition Constant, Ki   =   81.68 mM (millimolar)  [Temperature = 298.15 K]
DOCKED: USER    
DOCKED: USER    (1) Final Intermolecular Energy     =   -1.48 kcal/mol
DOCKED: USER        vdW + Hbond + desolv Energy     =   -0.08 kcal/mol
DOCKED: USER        Electrostatic Energy            =   -1.40 kcal/mol
DOCKED: USER    (2) Final Total Internal Energy     =   +0.00 kcal/mol
DOCKED: USER    (3) Torsional Free Energy           =   +0.00 kcal/mol
DOCKED: USER    (4) Unbound System's Energy  [=(2)] =   +0.00 kcal/mol
DOCKED: USER    
DOCKED: USER    
DOCKED: USER    NEWDPF move ../ligands/orthovanadate.pdbqt
DOCKED: USER    NEWDPF about 0.000000 0.000000 0.000000
DOCKED: USER    NEWDPF tran0 -35.865296 -20.081227 -43.211559
DOCKED: USER    NEWDPF quaternion0 -0.770183 0.134861 -0.549040 -0.295273
DOCKED: USER    NEWDPF axisangle0 -0.806125 0.141155 -0.574663 -145.652216
DOCKED: USER    NEWDPF quat0 -0.806125 0.141155 -0.574663 -145.652216
DOCKED: USER  keepresnum = 1 
DOCKED: USER  
DOCKED: USER                              x       y       z     vdW  Elec       q    Type
DOCKED: USER                           _______ _______ _______ _____ _____    ______ ____
DOCKED: ROOT
DOCKED: ATOM      1  V1  VO4 A   1     -35.865 -20.081 -43.212 +1.09 +0.80    +1.500 Zn
DOCKED: ATOM      2  O1  VO4 A   1     -34.449 -21.106 -43.272 -0.57 -0.47    -0.750 OA
DOCKED: ATOM      3  O2  VO4 A   1     -36.553 -20.131 -41.604 +0.15 -0.15    -0.750 OA
DOCKED: ATOM      4  O3  VO4 A   1     -37.047 -20.651 -44.369 -0.31 -1.15    -0.750 OA
DOCKED: ATOM      5  O4  VO4 A   1     -35.413 -18.437 -43.601 -0.44 -0.43    -0.750 OA
DOCKED: ENDROOT
DOCKED: TORSDOF 0
DOCKED: TER
DOCKED: ENDMDL
________________________________________________________________________________


	BEGINNING GENETIC ALGORITHM DOCKING 34 of 50
Run: 34 Seed: 212597268 1130385221 [ Run 34 of 50 GA/GALS ]
Beginning LAMARCKIAN GENETIC ALGORITHM (LGA), with a maximum of 250000 energy evaluations.

Final-Value: -1.483


	FINAL GENETIC ALGORITHM DOCKED STATE
	_______________________________________________


Detailed state:  trans -35.920 -20.026 -43.216 quatxyzw 0.106200 0.317932 -0.590723 -0.733953 center 0.000 0.000 0.000 ntor 0
State:	-35.920 -20.026 -43.216   0.156  0.468 -0.870 -85.562  

DOCKED: MODEL       34
DOCKED: USER    Run = 34
DOCKED: USER    DPF = pocket_small.dpf
DOCKED: USER  
DOCKED: USER    Estimated Free Energy of Binding    =   -1.48 kcal/mol  [=(1)+(2)+(3)-(4)]
DOCKED: USER    Estimated Inhibition Constant, Ki   =   81.85 mM (millimolar)  [Temperature = 298.15 K]
DOCKED: USER    
DOCKED: USER    (1) Final Intermolecular Energy     =   -1.48 kcal/mol
DOCKED: USER        vdW + Hbond + desolv Energy     =   -0.07 kcal/mol
DOCKED: USER        Electrostatic Energy            =   -1.42 kcal/mol
DOCKED: USER    (2) Final Total Internal Energy     =   +0.00 kcal/mol
DOCKED: USER    (3) Torsional Free Energy           =   +0.00 kcal/mol
DOCKED: USER    (4) Unbound System's Energy  [=(2)] =   +0.00 kcal/mol
DOCKED: USER    
DOCKED: USER    
DOCKED: USER    NEWDPF move ../ligands/orthovanadate.pdbqt
DOCKED: USER    NEWDPF about 0.000000 0.000000 0.000000
DOCKED: USER    NEWDPF tran0 -35.920378 -20.026313 -43.216120
DOCKED: USER    NEWDPF quaternion0 0.106200 0.317932 -0.590723 -0.733953
DOCKED: USER    NEWDPF axisangle0 0.156361 0.468098 -0.869733 -85.562329
DOCKED: USER    NEWDPF quat0 0.156361 0.468098 -0.869733 -85.562329
DOCKED: USER  keepresnum = 1 
DOCKED: USER  
DOCKED: USER                              x       y       z     vdW  Elec       q    Type
DOCKED: USER                           _______ _______ _______ _____ _____    ______ ____
DOCKED: ROOT
DOCKED: ATOM      1  V1  VO4 A   1     -35.920 -20.026 -43.216 +1.09 +0.81    +1.500 Zn
DOCKED: ATOM      2  O1  VO4 A   1     -34.531 -21.088 -43.253 -0.59 -0.46    -0.750 OA
DOCKED: ATOM      3  O2  VO4 A   1     -37.108 -20.579 -44.375 -0.28 -1.19    -0.750 OA
DOCKED: ATOM      4  O3  VO4 A   1     -35.422 -18.400 -43.623 -0.44 -0.43    -0.750 OA
DOCKED: ATOM      5  O4  VO4 A   1     -36.621 -20.038 -41.613 +0.16 -0.15    -0.750 OA
DOCKED: ENDROOT
DOCKED: TORSDOF 0
DOCKED: TER
DOCKED: ENDMDL
________________________________________________________________________________


	BEGINNING GENETIC ALGORITHM DOCKING 35 of 50
Run: 35 Seed: 2019860706 831328588 [ Run 35 of 50 GA/GALS ]
Beginning LAMARCKIAN GENETIC ALGORITHM (LGA), with a maximum of 250000 energy evaluations.

Final-Value: -1.487


	FINAL GENETIC ALGORITHM DOCKED STATE
	_______________________________________________


Detailed state:  trans -35.829 -20.129 -43.202 quatxyzw -0.768894 0.113503 -0.546044 -0.312659 center 0.000 0.000 0.000 ntor 0
State:	-35.829 -20.129 -43.202  -0.809  0.119 -0.575 -143.561  

DOCKED: MODEL       35
DOCKED: USER    Run = 35
DOCKED: USER    DPF = pocket_small.dpf
DOCKED: USER  
DOCKED: USER    Estimated Free Energy of Binding    =   -1.49 kcal/mol  [=(1)+(2)+(3)-(4)]
DOCKED: USER    Estimated Inhibition Constant, Ki   =   81.35 mM (millimolar)  [Temperature = 298.15 K]
DOCKED: USER    
DOCKED: USER    (1) Final Intermolecular Energy     =   -1.49 kcal/mol
DOCKED: USER        vdW + Hbond + desolv Energy     =   -0.13 kcal/mol
DOCKED: USER        Electrostatic Energy            =   -1.36 kcal/mol
DOCKED: USER    (2) Final Total Internal Energy     =   +0.00 kcal/mol
DOCKED: USER    (3) Torsional Free Energy           =   +0.00 kcal/mol
DOCKED: USER    (4) Unbound System's Energy  [=(2)] =   +0.00 kcal/mol
DOCKED: USER    
DOCKED: USER    
DOCKED: USER    NEWDPF move ../ligands/orthovanadate.pdbqt
DOCKED: USER    NEWDPF about 0.000000 0.000000 0.000000
DOCKED: USER    NEWDPF tran0 -35.829047 -20.128986 -43.201814
DOCKED: USER    NEWDPF quaternion0 -0.768894 0.113503 -0.546044 -0.312659
DOCKED: USER    NEWDPF axisangle0 -0.809477 0.119493 -0.574864 -143.560855
DOCKED: USER    NEWDPF quat0 -0.809477 0.119493 -0.574864 -143.560855
DOCKED: USER  keepresnum = 1 
DOCKED: USER  
DOCKED: USER                              x       y       z     vdW  Elec       q    Type
DOCKED: USER                           _______ _______ _______ _____ _____    ______ ____
DOCKED: ROOT
DOCKED: ATOM      1  V1  VO4 A   1     -35.829 -20.129 -43.202 +1.09 +0.80    +1.500 Zn
DOCKED: ATOM      2  O1  VO4 A   1     -34.359 -21.076 -43.246 -0.59 -0.47    -0.750 OA
DOCKED: ATOM      3  O2  VO4 A   1     -36.536 -20.224 -41.604 +0.15 -0.15    -0.750 OA
DOCKED: ATOM      4  O3  VO4 A   1     -36.962 -20.755 -44.379 -0.33 -1.12    -0.750 OA
DOCKED: ATOM      5  O4  VO4 A   1     -35.460 -18.461 -43.578 -0.45 -0.42    -0.750 OA
DOCKED: ENDROOT
DOCKED: TORSDOF 0
DOCKED: TER
DOCKED: ENDMDL
________________________________________________________________________________


	BEGINNING GENETIC ALGORITHM DOCKING 36 of 50
Run: 36 Seed: 1907562915 2036578698 [ Run 36 of 50 GA/GALS ]
Beginning LAMARCKIAN GENETIC ALGORITHM (LGA), with a maximum of 250000 energy evaluations.

Final-Value: -1.504


	FINAL GENETIC ALGORITHM DOCKED STATE
	_______________________________________________


Detailed state:  trans -35.836 -20.092 -43.213 quatxyzw -0.197526 0.867647 -0.455929 0.017367 center 0.000 0.000 0.000 ntor 0
State:	-35.836 -20.092 -43.213  -0.198  0.868 -0.456 178.010  

DOCKED: MODEL       36
DOCKED: USER    Run = 36
DOCKED: USER    DPF = pocket_small.dpf
DOCKED: USER  
DOCKED: USER    Estimated Free Energy of Binding    =   -1.50 kcal/mol  [=(1)+(2)+(3)-(4)]
DOCKED: USER    Estimated Inhibition Constant, Ki   =   79.03 mM (millimolar)  [Temperature = 298.15 K]
DOCKED: USER    
DOCKED: USER    (1) Final Intermolecular Energy     =   -1.50 kcal/mol
DOCKED: USER        vdW + Hbond + desolv Energy     =   -0.12 kcal/mol
DOCKED: USER        Electrostatic Energy            =   -1.38 kcal/mol
DOCKED: USER    (2) Final Total Internal Energy     =   +0.00 kcal/mol
DOCKED: USER    (3) Torsional Free Energy           =   +0.00 kcal/mol
DOCKED: USER    (4) Unbound System's Energy  [=(2)] =   +0.00 kcal/mol
DOCKED: USER    
DOCKED: USER    
DOCKED: USER    NEWDPF move ../ligands/orthovanadate.pdbqt
DOCKED: USER    NEWDPF about 0.000000 0.000000 0.000000
DOCKED: USER    NEWDPF tran0 -35.836132 -20.092106 -43.212850
DOCKED: USER    NEWDPF quaternion0 -0.197526 0.867647 -0.455929 0.017367
DOCKED: USER    NEWDPF axisangle0 -0.197556 0.867778 -0.455997 178.009832
DOCKED: USER    NEWDPF quat0 -0.197556 0.867778 -0.455997 178.009832
DOCKED: USER  keepresnum = 1 
DOCKED: USER  
DOCKED: USER                              x       y       z     vdW  Elec       q    Type
DOCKED: USER                           _______ _______ _______ _____ _____    ______ ____
DOCKED: ROOT
DOCKED: ATOM      1  V1  VO4 A   1     -35.836 -20.092 -43.213 +1.09 +0.80    +1.500 Zn
DOCKED: ATOM      2  O1  VO4 A   1     -36.977 -20.717 -44.382 -0.33 -1.14    -0.750 OA
DOCKED: ATOM      3  O2  VO4 A   1     -36.556 -20.128 -41.619 +0.15 -0.15    -0.750 OA
DOCKED: ATOM      4  O3  VO4 A   1     -35.419 -18.445 -43.628 -0.45 -0.44    -0.750 OA
DOCKED: ATOM      5  O4  VO4 A   1     -34.392 -21.079 -43.223 -0.58 -0.46    -0.750 OA
DOCKED: ENDROOT
DOCKED: TORSDOF 0
DOCKED: TER
DOCKED: ENDMDL
________________________________________________________________________________


	BEGINNING GENETIC ALGORITHM DOCKING 37 of 50
Run: 37 Seed: 717130008 1051694095 [ Run 37 of 50 GA/GALS ]
Beginning LAMARCKIAN GENETIC ALGORITHM (LGA), with a maximum of 250000 energy evaluations.

Final-Value: -1.482


	FINAL GENETIC ALGORITHM DOCKED STATE
	_______________________________________________


Detailed state:  trans -35.870 -20.112 -43.208 quatxyzw -0.120870 -0.768467 -0.297882 0.553276 center 0.000 0.000 0.000 ntor 0
State:	-35.870 -20.112 -43.208  -0.145 -0.923 -0.358 112.816  

DOCKED: MODEL       37
DOCKED: USER    Run = 37
DOCKED: USER    DPF = pocket_small.dpf
DOCKED: USER  
DOCKED: USER    Estimated Free Energy of Binding    =   -1.48 kcal/mol  [=(1)+(2)+(3)-(4)]
DOCKED: USER    Estimated Inhibition Constant, Ki   =   81.95 mM (millimolar)  [Temperature = 298.15 K]
DOCKED: USER    
DOCKED: USER    (1) Final Intermolecular Energy     =   -1.48 kcal/mol
DOCKED: USER        vdW + Hbond + desolv Energy     =   -0.10 kcal/mol
DOCKED: USER        Electrostatic Energy            =   -1.38 kcal/mol
DOCKED: USER    (2) Final Total Internal Energy     =   +0.00 kcal/mol
DOCKED: USER    (3) Torsional Free Energy           =   +0.00 kcal/mol
DOCKED: USER    (4) Unbound System's Energy  [=(2)] =   +0.00 kcal/mol
DOCKED: USER    
DOCKED: USER    
DOCKED: USER    NEWDPF move ../ligands/orthovanadate.pdbqt
DOCKED: USER    NEWDPF about 0.000000 0.000000 0.000000
DOCKED: USER    NEWDPF tran0 -35.870342 -20.112269 -43.208421
DOCKED: USER    NEWDPF quaternion0 -0.120870 -0.768467 -0.297882 0.553276
DOCKED: USER    NEWDPF axisangle0 -0.145103 -0.922532 -0.357602 112.815846
DOCKED: USER    NEWDPF quat0 -0.145103 -0.922532 -0.357602 112.815846
DOCKED: USER  keepresnum = 1 
DOCKED: USER  
DOCKED: USER                              x       y       z     vdW  Elec       q    Type
DOCKED: USER                           _______ _______ _______ _____ _____    ______ ____
DOCKED: ROOT
DOCKED: ATOM      1  V1  VO4 A   1     -35.870 -20.112 -43.208 +1.09 +0.80    +1.500 Zn
DOCKED: ATOM      2  O1  VO4 A   1     -35.446 -18.463 -43.609 -0.45 -0.43    -0.750 OA
DOCKED: ATOM      3  O2  VO4 A   1     -37.019 -20.720 -44.380 -0.32 -1.14    -0.750 OA
DOCKED: ATOM      4  O3  VO4 A   1     -36.585 -20.159 -41.612 +0.15 -0.15    -0.750 OA
DOCKED: ATOM      5  O4  VO4 A   1     -34.431 -21.107 -43.232 -0.58 -0.46    -0.750 OA
DOCKED: ENDROOT
DOCKED: TORSDOF 0
DOCKED: TER
DOCKED: ENDMDL
________________________________________________________________________________


	BEGINNING GENETIC ALGORITHM DOCKING 38 of 50
Run: 38 Seed: 1415771107 706807629 [ Run 38 of 50 GA/GALS ]
Beginning LAMARCKIAN GENETIC ALGORITHM (LGA), with a maximum of 250000 energy evaluations.

Final-Value: -1.487


	FINAL GENETIC ALGORITHM DOCKED STATE
	_______________________________________________


Detailed state:  trans -35.809 -20.126 -43.176 quatxyzw 0.550029 0.320203 -0.761055 0.125433 center 0.000 0.000 0.000 ntor 0
State:	-35.809 -20.126 -43.176   0.554  0.323 -0.767 165.589  

DOCKED: MODEL       38
DOCKED: USER    Run = 38
DOCKED: USER    DPF = pocket_small.dpf
DOCKED: USER  
DOCKED: USER    Estimated Free Energy of Binding    =   -1.49 kcal/mol  [=(1)+(2)+(3)-(4)]
DOCKED: USER    Estimated Inhibition Constant, Ki   =   81.35 mM (millimolar)  [Temperature = 298.15 K]
DOCKED: USER    
DOCKED: USER    (1) Final Intermolecular Energy     =   -1.49 kcal/mol
DOCKED: USER        vdW + Hbond + desolv Energy     =   -0.11 kcal/mol
DOCKED: USER        Electrostatic Energy            =   -1.37 kcal/mol
DOCKED: USER    (2) Final Total Internal Energy     =   +0.00 kcal/mol
DOCKED: USER    (3) Torsional Free Energy           =   +0.00 kcal/mol
DOCKED: USER    (4) Unbound System's Energy  [=(2)] =   +0.00 kcal/mol
DOCKED: USER    
DOCKED: USER    
DOCKED: USER    NEWDPF move ../ligands/orthovanadate.pdbqt
DOCKED: USER    NEWDPF about 0.000000 0.000000 0.000000
DOCKED: USER    NEWDPF tran0 -35.808547 -20.126371 -43.175704
DOCKED: USER    NEWDPF quaternion0 0.550029 0.320203 -0.761055 0.125433
DOCKED: USER    NEWDPF axisangle0 0.554407 0.322752 -0.767114 165.588498
DOCKED: USER    NEWDPF quat0 0.554407 0.322752 -0.767114 165.588498
DOCKED: USER  keepresnum = 1 
DOCKED: USER  
DOCKED: USER                              x       y       z     vdW  Elec       q    Type
DOCKED: USER                           _______ _______ _______ _____ _____    ______ ____
DOCKED: ROOT
DOCKED: ATOM      1  V1  VO4 A   1     -35.809 -20.126 -43.176 +1.09 +0.78    +1.500 Zn
DOCKED: ATOM      2  O1  VO4 A   1     -36.939 -20.702 -44.380 -0.35 -1.13    -0.750 OA
DOCKED: ATOM      3  O2  VO4 A   1     -35.412 -18.454 -43.500 -0.43 -0.41    -0.750 OA
DOCKED: ATOM      4  O3  VO4 A   1     -34.352 -21.093 -43.235 -0.58 -0.47    -0.750 OA
DOCKED: ATOM      5  O4  VO4 A   1     -36.531 -20.257 -41.588 +0.15 -0.15    -0.750 OA
DOCKED: ENDROOT
DOCKED: TORSDOF 0
DOCKED: TER
DOCKED: ENDMDL
________________________________________________________________________________


	BEGINNING GENETIC ALGORITHM DOCKING 39 of 50
Run: 39 Seed: 1685122360 38454108 [ Run 39 of 50 GA/GALS ]
Beginning LAMARCKIAN GENETIC ALGORITHM (LGA), with a maximum of 250000 energy evaluations.

Final-Value: -1.493


	FINAL GENETIC ALGORITHM DOCKED STATE
	_______________________________________________


Detailed state:  trans -35.831 -20.088 -43.222 quatxyzw 0.302191 -0.546432 -0.124782 -0.771052 center 0.000 0.000 0.000 ntor 0
State:	-35.831 -20.088 -43.222   0.475 -0.858 -0.196 -79.103  

DOCKED: MODEL       39
DOCKED: USER    Run = 39
DOCKED: USER    DPF = pocket_small.dpf
DOCKED: USER  
DOCKED: USER    Estimated Free Energy of Binding    =   -1.49 kcal/mol  [=(1)+(2)+(3)-(4)]
DOCKED: USER    Estimated Inhibition Constant, Ki   =   80.41 mM (millimolar)  [Temperature = 298.15 K]
DOCKED: USER    
DOCKED: USER    (1) Final Intermolecular Energy     =   -1.49 kcal/mol
DOCKED: USER        vdW + Hbond + desolv Energy     =   -0.09 kcal/mol
DOCKED: USER        Electrostatic Energy            =   -1.40 kcal/mol
DOCKED: USER    (2) Final Total Internal Energy     =   +0.00 kcal/mol
DOCKED: USER    (3) Torsional Free Energy           =   +0.00 kcal/mol
DOCKED: USER    (4) Unbound System's Energy  [=(2)] =   +0.00 kcal/mol
DOCKED: USER    
DOCKED: USER    
DOCKED: USER    NEWDPF move ../ligands/orthovanadate.pdbqt
DOCKED: USER    NEWDPF about 0.000000 0.000000 0.000000
DOCKED: USER    NEWDPF tran0 -35.831353 -20.088156 -43.222269
DOCKED: USER    NEWDPF quaternion0 0.302191 -0.546432 -0.124782 -0.771052
DOCKED: USER    NEWDPF axisangle0 0.474567 -0.858129 -0.195960 -79.103035
DOCKED: USER    NEWDPF quat0 0.474567 -0.858129 -0.195960 -79.103035
DOCKED: USER  keepresnum = 1 
DOCKED: USER  
DOCKED: USER                              x       y       z     vdW  Elec       q    Type
DOCKED: USER                           _______ _______ _______ _____ _____    ______ ____
DOCKED: ROOT
DOCKED: ATOM      1  V1  VO4 A   1     -35.831 -20.088 -43.222 +1.09 +0.81    +1.500 Zn
DOCKED: ATOM      2  O1  VO4 A   1     -36.522 -20.155 -41.617 +0.15 -0.15    -0.750 OA
DOCKED: ATOM      3  O2  VO4 A   1     -34.389 -21.077 -43.278 -0.57 -0.47    -0.750 OA
DOCKED: ATOM      4  O3  VO4 A   1     -35.419 -18.433 -43.611 -0.44 -0.43    -0.750 OA
DOCKED: ATOM      5  O4  VO4 A   1     -36.995 -20.687 -44.383 -0.32 -1.15    -0.750 OA
DOCKED: ENDROOT
DOCKED: TORSDOF 0
DOCKED: TER
DOCKED: ENDMDL
________________________________________________________________________________


	BEGINNING GENETIC ALGORITHM DOCKING 40 of 50
Run: 40 Seed: 1951115021 61451085 [ Run 40 of 50 GA/GALS ]
Beginning LAMARCKIAN GENETIC ALGORITHM (LGA), with a maximum of 250000 energy evaluations.

Final-Value: -1.467


	FINAL GENETIC ALGORITHM DOCKED STATE
	_______________________________________________


Detailed state:  trans -36.007 -20.067 -43.270 quatxyzw -0.773867 0.180441 -0.536899 -0.283389 center 0.000 0.000 0.000 ntor 0
State:	-36.007 -20.067 -43.270  -0.807  0.188 -0.560 -147.075  

DOCKED: MODEL       40
DOCKED: USER    Run = 40
DOCKED: USER    DPF = pocket_small.dpf
DOCKED: USER  
DOCKED: USER    Estimated Free Energy of Binding    =   -1.47 kcal/mol  [=(1)+(2)+(3)-(4)]
DOCKED: USER    Estimated Inhibition Constant, Ki   =   84.01 mM (millimolar)  [Temperature = 298.15 K]
DOCKED: USER    
DOCKED: USER    (1) Final Intermolecular Energy     =   -1.47 kcal/mol
DOCKED: USER        vdW + Hbond + desolv Energy     =   +0.03 kcal/mol
DOCKED: USER        Electrostatic Energy            =   -1.49 kcal/mol
DOCKED: USER    (2) Final Total Internal Energy     =   +0.00 kcal/mol
DOCKED: USER    (3) Torsional Free Energy           =   +0.00 kcal/mol
DOCKED: USER    (4) Unbound System's Energy  [=(2)] =   +0.00 kcal/mol
DOCKED: USER    
DOCKED: USER    
DOCKED: USER    NEWDPF move ../ligands/orthovanadate.pdbqt
DOCKED: USER    NEWDPF about 0.000000 0.000000 0.000000
DOCKED: USER    NEWDPF tran0 -36.007237 -20.067488 -43.269508
DOCKED: USER    NEWDPF quaternion0 -0.773867 0.180441 -0.536899 -0.283389
DOCKED: USER    NEWDPF axisangle0 -0.806948 0.188155 -0.559851 -147.074793
DOCKED: USER    NEWDPF quat0 -0.806948 0.188155 -0.559851 -147.074793
DOCKED: USER  keepresnum = 1 
DOCKED: USER  
DOCKED: USER                              x       y       z     vdW  Elec       q    Type
DOCKED: USER                           _______ _______ _______ _____ _____    ______ ____
DOCKED: ROOT
DOCKED: ATOM      1  V1  VO4 A   1     -36.007 -20.067 -43.270 +1.09 +0.84    +1.500 Zn
DOCKED: ATOM      2  O1  VO4 A   1     -34.677 -21.192 -43.438 -0.58 -0.50    -0.750 OA
DOCKED: ATOM      3  O2  VO4 A   1     -36.613 -20.122 -41.629 +0.15 -0.15    -0.750 OA
DOCKED: ATOM      4  O3  VO4 A   1     -37.286 -20.507 -44.379 -0.19 -1.24    -0.750 OA
DOCKED: ATOM      5  O4  VO4 A   1     -35.452 -18.449 -43.632 -0.45 -0.44    -0.750 OA
DOCKED: ENDROOT
DOCKED: TORSDOF 0
DOCKED: TER
DOCKED: ENDMDL
________________________________________________________________________________


	BEGINNING GENETIC ALGORITHM DOCKING 41 of 50
Run: 41 Seed: 205010399 1504818588 [ Run 41 of 50 GA/GALS ]
Beginning LAMARCKIAN GENETIC ALGORITHM (LGA), with a maximum of 250000 energy evaluations.

Final-Value: -1.492


	FINAL GENETIC ALGORITHM DOCKED STATE
	_______________________________________________


Detailed state:  trans -35.841 -20.089 -43.199 quatxyzw 0.122567 0.768799 0.305219 -0.548422 center 0.000 0.000 0.000 ntor 0
State:	-35.841 -20.089 -43.199   0.147  0.919  0.365 -113.482  

DOCKED: MODEL       41
DOCKED: USER    Run = 41
DOCKED: USER    DPF = pocket_small.dpf
DOCKED: USER  
DOCKED: USER    Estimated Free Energy of Binding    =   -1.49 kcal/mol  [=(1)+(2)+(3)-(4)]
DOCKED: USER    Estimated Inhibition Constant, Ki   =   80.54 mM (millimolar)  [Temperature = 298.15 K]
DOCKED: USER    
DOCKED: USER    (1) Final Intermolecular Energy     =   -1.49 kcal/mol
DOCKED: USER        vdW + Hbond + desolv Energy     =   -0.12 kcal/mol
DOCKED: USER        Electrostatic Energy            =   -1.38 kcal/mol
DOCKED: USER    (2) Final Total Internal Energy     =   +0.00 kcal/mol
DOCKED: USER    (3) Torsional Free Energy           =   +0.00 kcal/mol
DOCKED: USER    (4) Unbound System's Energy  [=(2)] =   +0.00 kcal/mol
DOCKED: USER    
DOCKED: USER    
DOCKED: USER    NEWDPF move ../ligands/orthovanadate.pdbqt
DOCKED: USER    NEWDPF about 0.000000 0.000000 0.000000
DOCKED: USER    NEWDPF tran0 -35.840887 -20.088623 -43.198801
DOCKED: USER    NEWDPF quaternion0 0.122567 0.768799 0.305219 -0.548422
DOCKED: USER    NEWDPF axisangle0 0.146576 0.919395 0.365006 -113.482369
DOCKED: USER    NEWDPF quat0 0.146576 0.919395 0.365006 -113.482369
DOCKED: USER  keepresnum = 1 
DOCKED: USER  
DOCKED: USER                              x       y       z     vdW  Elec       q    Type
DOCKED: USER                           _______ _______ _______ _____ _____    ______ ____
DOCKED: ROOT
DOCKED: ATOM      1  V1  VO4 A   1     -35.841 -20.089 -43.199 +1.09 +0.80    +1.500 Zn
DOCKED: ATOM      2  O1  VO4 A   1     -35.434 -18.430 -43.579 -0.44 -0.42    -0.750 OA
DOCKED: ATOM      3  O2  VO4 A   1     -36.992 -20.690 -44.370 -0.33 -1.14    -0.750 OA
DOCKED: ATOM      4  O3  VO4 A   1     -36.544 -20.164 -41.599 +0.15 -0.15    -0.750 OA
DOCKED: ATOM      5  O4  VO4 A   1     -34.394 -21.070 -43.247 -0.59 -0.46    -0.750 OA
DOCKED: ENDROOT
DOCKED: TORSDOF 0
DOCKED: TER
DOCKED: ENDMDL
________________________________________________________________________________


	BEGINNING GENETIC ALGORITHM DOCKING 42 of 50
Run: 42 Seed: 1234082110 1383169966 [ Run 42 of 50 GA/GALS ]
Beginning LAMARCKIAN GENETIC ALGORITHM (LGA), with a maximum of 250000 energy evaluations.

Final-Value: -1.499


	FINAL GENETIC ALGORITHM DOCKED STATE
	_______________________________________________


Detailed state:  trans -35.879 -20.073 -43.217 quatxyzw 0.745353 -0.575059 -0.321718 0.101257 center 0.000 0.000 0.000 ntor 0
State:	-35.879 -20.073 -43.217   0.749 -0.578 -0.323 168.377  

DOCKED: MODEL       42
DOCKED: USER    Run = 42
DOCKED: USER    DPF = pocket_small.dpf
DOCKED: USER  
DOCKED: USER    Estimated Free Energy of Binding    =   -1.50 kcal/mol  [=(1)+(2)+(3)-(4)]
DOCKED: USER    Estimated Inhibition Constant, Ki   =   79.64 mM (millimolar)  [Temperature = 298.15 K]
DOCKED: USER    
DOCKED: USER    (1) Final Intermolecular Energy     =   -1.50 kcal/mol
DOCKED: USER        vdW + Hbond + desolv Energy     =   -0.10 kcal/mol
DOCKED: USER        Electrostatic Energy            =   -1.40 kcal/mol
DOCKED: USER    (2) Final Total Internal Energy     =   +0.00 kcal/mol
DOCKED: USER    (3) Torsional Free Energy           =   +0.00 kcal/mol
DOCKED: USER    (4) Unbound System's Energy  [=(2)] =   +0.00 kcal/mol
DOCKED: USER    
DOCKED: USER    
DOCKED: USER    NEWDPF move ../ligands/orthovanadate.pdbqt
DOCKED: USER    NEWDPF about 0.000000 0.000000 0.000000
DOCKED: USER    NEWDPF tran0 -35.879374 -20.072944 -43.217092
DOCKED: USER    NEWDPF quaternion0 0.745353 -0.575059 -0.321718 0.101257
DOCKED: USER    NEWDPF axisangle0 0.749204 -0.578030 -0.323380 168.376871
DOCKED: USER    NEWDPF quat0 0.749204 -0.578030 -0.323380 168.376871
DOCKED: USER  keepresnum = 1 
DOCKED: USER  
DOCKED: USER                              x       y       z     vdW  Elec       q    Type
DOCKED: USER                           _______ _______ _______ _____ _____    ______ ____
DOCKED: ROOT
DOCKED: ATOM      1  V1  VO4 A   1     -35.879 -20.073 -43.217 +1.09 +0.81    +1.500 Zn
DOCKED: ATOM      2  O1  VO4 A   1     -37.045 -20.668 -44.378 -0.31 -1.16    -0.750 OA
DOCKED: ATOM      3  O2  VO4 A   1     -34.448 -21.078 -43.260 -0.59 -0.46    -0.750 OA
DOCKED: ATOM      4  O3  VO4 A   1     -36.577 -20.120 -41.614 +0.15 -0.15    -0.750 OA
DOCKED: ATOM      5  O4  VO4 A   1     -35.447 -18.425 -43.617 -0.45 -0.43    -0.750 OA
DOCKED: ENDROOT
DOCKED: TORSDOF 0
DOCKED: TER
DOCKED: ENDMDL
________________________________________________________________________________


	BEGINNING GENETIC ALGORITHM DOCKING 43 of 50
Run: 43 Seed: 1725147542 1928274077 [ Run 43 of 50 GA/GALS ]
Beginning LAMARCKIAN GENETIC ALGORITHM (LGA), with a maximum of 250000 energy evaluations.

Final-Value: -1.496


	FINAL GENETIC ALGORITHM DOCKED STATE
	_______________________________________________


Detailed state:  trans -35.793 -20.075 -43.217 quatxyzw 0.564010 0.756093 0.093882 0.318437 center 0.000 0.000 0.000 ntor 0
State:	-35.793 -20.075 -43.217   0.595  0.798  0.099 142.863  

DOCKED: MODEL       43
DOCKED: USER    Run = 43
DOCKED: USER    DPF = pocket_small.dpf
DOCKED: USER  
DOCKED: USER    Estimated Free Energy of Binding    =   -1.50 kcal/mol  [=(1)+(2)+(3)-(4)]
DOCKED: USER    Estimated Inhibition Constant, Ki   =   80.10 mM (millimolar)  [Temperature = 298.15 K]
DOCKED: USER    
DOCKED: USER    (1) Final Intermolecular Energy     =   -1.50 kcal/mol
DOCKED: USER        vdW + Hbond + desolv Energy     =   -0.12 kcal/mol
DOCKED: USER        Electrostatic Energy            =   -1.37 kcal/mol
DOCKED: USER    (2) Final Total Internal Energy     =   +0.00 kcal/mol
DOCKED: USER    (3) Torsional Free Energy           =   +0.00 kcal/mol
DOCKED: USER    (4) Unbound System's Energy  [=(2)] =   +0.00 kcal/mol
DOCKED: USER    
DOCKED: USER    
DOCKED: USER    NEWDPF move ../ligands/orthovanadate.pdbqt
DOCKED: USER    NEWDPF about 0.000000 0.000000 0.000000
DOCKED: USER    NEWDPF tran0 -35.792705 -20.075035 -43.217155
DOCKED: USER    NEWDPF quaternion0 0.564010 0.756093 0.093882 0.318437
DOCKED: USER    NEWDPF axisangle0 0.594982 0.797614 0.099038 142.863092
DOCKED: USER    NEWDPF quat0 0.594982 0.797614 0.099038 142.863092
DOCKED: USER  keepresnum = 1 
DOCKED: USER  
DOCKED: USER                              x       y       z     vdW  Elec       q    Type
DOCKED: USER                           _______ _______ _______ _____ _____    ______ ____
DOCKED: ROOT
DOCKED: ATOM      1  V1  VO4 A   1     -35.793 -20.075 -43.217 +1.09 +0.80    +1.500 Zn
DOCKED: ATOM      2  O1  VO4 A   1     -35.413 -18.418 -43.631 -0.44 -0.44    -0.750 OA
DOCKED: ATOM      3  O2  VO4 A   1     -36.498 -20.130 -41.617 +0.15 -0.15    -0.750 OA
DOCKED: ATOM      4  O3  VO4 A   1     -34.329 -21.033 -43.243 -0.57 -0.46    -0.750 OA
DOCKED: ATOM      5  O4  VO4 A   1     -36.931 -20.719 -44.378 -0.35 -1.12    -0.750 OA
DOCKED: ENDROOT
DOCKED: TORSDOF 0
DOCKED: TER
DOCKED: ENDMDL
________________________________________________________________________________


	BEGINNING GENETIC ALGORITHM DOCKING 44 of 50
Run: 44 Seed: 202382766 312520506 [ Run 44 of 50 GA/GALS ]
Beginning LAMARCKIAN GENETIC ALGORITHM (LGA), with a maximum of 250000 energy evaluations.

Final-Value: -1.463


	FINAL GENETIC ALGORITHM DOCKED STATE
	_______________________________________________


Detailed state:  trans -35.933 -20.085 -43.199 quatxyzw -0.559390 -0.290906 0.763142 -0.141676 center 0.000 0.000 0.000 ntor 0
State:	-35.933 -20.085 -43.199  -0.565 -0.294  0.771 -163.710  

DOCKED: MODEL       44
DOCKED: USER    Run = 44
DOCKED: USER    DPF = pocket_small.dpf
DOCKED: USER  
DOCKED: USER    Estimated Free Energy of Binding    =   -1.46 kcal/mol  [=(1)+(2)+(3)-(4)]
DOCKED: USER    Estimated Inhibition Constant, Ki   =   84.61 mM (millimolar)  [Temperature = 298.15 K]
DOCKED: USER    
DOCKED: USER    (1) Final Intermolecular Energy     =   -1.46 kcal/mol
DOCKED: USER        vdW + Hbond + desolv Energy     =   -0.05 kcal/mol
DOCKED: USER        Electrostatic Energy            =   -1.41 kcal/mol
DOCKED: USER    (2) Final Total Internal Energy     =   +0.00 kcal/mol
DOCKED: USER    (3) Torsional Free Energy           =   +0.00 kcal/mol
DOCKED: USER    (4) Unbound System's Energy  [=(2)] =   +0.00 kcal/mol
DOCKED: USER    
DOCKED: USER    
DOCKED: USER    NEWDPF move ../ligands/orthovanadate.pdbqt
DOCKED: USER    NEWDPF about 0.000000 0.000000 0.000000
DOCKED: USER    NEWDPF tran0 -35.933388 -20.085123 -43.199361
DOCKED: USER    NEWDPF quaternion0 -0.559390 -0.290906 0.763142 -0.141676
DOCKED: USER    NEWDPF axisangle0 -0.565090 -0.293870 0.770918 -163.710311
DOCKED: USER    NEWDPF quat0 -0.565090 -0.293870 0.770918 -163.710311
DOCKED: USER  keepresnum = 1 
DOCKED: USER  
DOCKED: USER                              x       y       z     vdW  Elec       q    Type
DOCKED: USER                           _______ _______ _______ _____ _____    ______ ____
DOCKED: ROOT
DOCKED: ATOM      1  V1  VO4 A   1     -35.933 -20.085 -43.199 +1.09 +0.80    +1.500 Zn
DOCKED: ATOM      2  O1  VO4 A   1     -37.106 -20.625 -44.380 -0.28 -1.18    -0.750 OA
DOCKED: ATOM      3  O2  VO4 A   1     -35.435 -18.451 -43.577 -0.44 -0.42    -0.750 OA
DOCKED: ATOM      4  O3  VO4 A   1     -34.540 -21.142 -43.236 -0.57 -0.46    -0.750 OA
DOCKED: ATOM      5  O4  VO4 A   1     -36.652 -20.122 -41.605 +0.16 -0.15    -0.750 OA
DOCKED: ENDROOT
DOCKED: TORSDOF 0
DOCKED: TER
DOCKED: ENDMDL
________________________________________________________________________________


	BEGINNING GENETIC ALGORITHM DOCKING 45 of 50
Run: 45 Seed: 384185856 890929313 [ Run 45 of 50 GA/GALS ]
Beginning LAMARCKIAN GENETIC ALGORITHM (LGA), with a maximum of 250000 energy evaluations.

Final-Value: -1.504


	FINAL GENETIC ALGORITHM DOCKED STATE
	_______________________________________________


Detailed state:  trans -35.831 -20.104 -43.208 quatxyzw -0.102224 -0.325549 0.564538 0.751575 center 0.000 0.000 0.000 ntor 0
State:	-35.831 -20.104 -43.208  -0.155 -0.494  0.856 82.546  

DOCKED: MODEL       45
DOCKED: USER    Run = 45
DOCKED: USER    DPF = pocket_small.dpf
DOCKED: USER  
DOCKED: USER    Estimated Free Energy of Binding    =   -1.50 kcal/mol  [=(1)+(2)+(3)-(4)]
DOCKED: USER    Estimated Inhibition Constant, Ki   =   79.00 mM (millimolar)  [Temperature = 298.15 K]
DOCKED: USER    
DOCKED: USER    (1) Final Intermolecular Energy     =   -1.50 kcal/mol
DOCKED: USER        vdW + Hbond + desolv Energy     =   -0.12 kcal/mol
DOCKED: USER        Electrostatic Energy            =   -1.38 kcal/mol
DOCKED: USER    (2) Final Total Internal Energy     =   +0.00 kcal/mol
DOCKED: USER    (3) Torsional Free Energy           =   +0.00 kcal/mol
DOCKED: USER    (4) Unbound System's Energy  [=(2)] =   +0.00 kcal/mol
DOCKED: USER    
DOCKED: USER    
DOCKED: USER    NEWDPF move ../ligands/orthovanadate.pdbqt
DOCKED: USER    NEWDPF about 0.000000 0.000000 0.000000
DOCKED: USER    NEWDPF tran0 -35.831000 -20.103728 -43.207971
DOCKED: USER    NEWDPF quaternion0 -0.102224 -0.325549 0.564538 0.751575
DOCKED: USER    NEWDPF axisangle0 -0.154968 -0.493520 0.855817 82.545984
DOCKED: USER    NEWDPF quat0 -0.154968 -0.493520 0.855817 82.545984
DOCKED: USER  keepresnum = 1 
DOCKED: USER  
DOCKED: USER                              x       y       z     vdW  Elec       q    Type
DOCKED: USER                           _______ _______ _______ _____ _____    ______ ____
DOCKED: ROOT
DOCKED: ATOM      1  V1  VO4 A   1     -35.831 -20.104 -43.208 +1.09 +0.80    +1.500 Zn
DOCKED: ATOM      2  O1  VO4 A   1     -34.377 -21.075 -43.260 -0.59 -0.47    -0.750 OA
DOCKED: ATOM      3  O2  VO4 A   1     -36.981 -20.712 -44.378 -0.33 -1.13    -0.750 OA
DOCKED: ATOM      4  O3  VO4 A   1     -35.437 -18.442 -43.588 -0.44 -0.43    -0.750 OA
DOCKED: ATOM      5  O4  VO4 A   1     -36.530 -20.185 -41.606 +0.15 -0.15    -0.750 OA
DOCKED: ENDROOT
DOCKED: TORSDOF 0
DOCKED: TER
DOCKED: ENDMDL
________________________________________________________________________________


	BEGINNING GENETIC ALGORITHM DOCKING 46 of 50
Run: 46 Seed: 596299135 1584271644 [ Run 46 of 50 GA/GALS ]
Beginning LAMARCKIAN GENETIC ALGORITHM (LGA), with a maximum of 250000 energy evaluations.

Final-Value: -1.465


	FINAL GENETIC ALGORITHM DOCKED STATE
	_______________________________________________


Detailed state:  trans -36.009 -20.071 -43.256 quatxyzw 0.344485 -0.111045 0.712370 -0.601273 center 0.000 0.000 0.000 ntor 0
State:	-36.009 -20.071 -43.256   0.431 -0.139  0.892 -106.078  

DOCKED: MODEL       46
DOCKED: USER    Run = 46
DOCKED: USER    DPF = pocket_small.dpf
DOCKED: USER  
DOCKED: USER    Estimated Free Energy of Binding    =   -1.46 kcal/mol  [=(1)+(2)+(3)-(4)]
DOCKED: USER    Estimated Inhibition Constant, Ki   =   84.42 mM (millimolar)  [Temperature = 298.15 K]
DOCKED: USER    
DOCKED: USER    (1) Final Intermolecular Energy     =   -1.46 kcal/mol
DOCKED: USER        vdW + Hbond + desolv Energy     =   +0.01 kcal/mol
DOCKED: USER        Electrostatic Energy            =   -1.47 kcal/mol
DOCKED: USER    (2) Final Total Internal Energy     =   +0.00 kcal/mol
DOCKED: USER    (3) Torsional Free Energy           =   +0.00 kcal/mol
DOCKED: USER    (4) Unbound System's Energy  [=(2)] =   +0.00 kcal/mol
DOCKED: USER    
DOCKED: USER    
DOCKED: USER    NEWDPF move ../ligands/orthovanadate.pdbqt
DOCKED: USER    NEWDPF about 0.000000 0.000000 0.000000
DOCKED: USER    NEWDPF tran0 -36.008661 -20.071142 -43.256314
DOCKED: USER    NEWDPF quaternion0 0.344485 -0.111045 0.712370 -0.601273
DOCKED: USER    NEWDPF axisangle0 0.431121 -0.138972 0.891527 -106.077815
DOCKED: USER    NEWDPF quat0 0.431121 -0.138972 0.891527 -106.077815
DOCKED: USER  keepresnum = 1 
DOCKED: USER  
DOCKED: USER                              x       y       z     vdW  Elec       q    Type
DOCKED: USER                           _______ _______ _______ _____ _____    ______ ____
DOCKED: ROOT
DOCKED: ATOM      1  V1  VO4 A   1     -36.009 -20.071 -43.256 +1.09 +0.83    +1.500 Zn
DOCKED: ATOM      2  O1  VO4 A   1     -36.630 -20.116 -41.622 +0.16 -0.15    -0.750 OA
DOCKED: ATOM      3  O2  VO4 A   1     -35.467 -18.450 -43.630 -0.46 -0.43    -0.750 OA
DOCKED: ATOM      4  O3  VO4 A   1     -37.272 -20.536 -44.374 -0.20 -1.23    -0.750 OA
DOCKED: ATOM      5  O4  VO4 A   1     -34.665 -21.182 -43.400 -0.58 -0.49    -0.750 OA
DOCKED: ENDROOT
DOCKED: TORSDOF 0
DOCKED: TER
DOCKED: ENDMDL
________________________________________________________________________________


	BEGINNING GENETIC ALGORITHM DOCKING 47 of 50
Run: 47 Seed: 645713279 1061758833 [ Run 47 of 50 GA/GALS ]
Beginning LAMARCKIAN GENETIC ALGORITHM (LGA), with a maximum of 250000 energy evaluations.

Final-Value: -1.489


	FINAL GENETIC ALGORITHM DOCKED STATE
	_______________________________________________


Detailed state:  trans -35.785 -20.133 -43.175 quatxyzw 0.122488 0.763166 0.324455 -0.545255 center 0.000 0.000 0.000 ntor 0
State:	-35.785 -20.133 -43.175   0.146  0.910  0.387 -113.916  

DOCKED: MODEL       47
DOCKED: USER    Run = 47
DOCKED: USER    DPF = pocket_small.dpf
DOCKED: USER  
DOCKED: USER    Estimated Free Energy of Binding    =   -1.49 kcal/mol  [=(1)+(2)+(3)-(4)]
DOCKED: USER    Estimated Inhibition Constant, Ki   =   80.98 mM (millimolar)  [Temperature = 298.15 K]
DOCKED: USER    
DOCKED: USER    (1) Final Intermolecular Energy     =   -1.49 kcal/mol
DOCKED: USER        vdW + Hbond + desolv Energy     =   -0.13 kcal/mol
DOCKED: USER        Electrostatic Energy            =   -1.36 kcal/mol
DOCKED: USER    (2) Final Total Internal Energy     =   +0.00 kcal/mol
DOCKED: USER    (3) Torsional Free Energy           =   +0.00 kcal/mol
DOCKED: USER    (4) Unbound System's Energy  [=(2)] =   +0.00 kcal/mol
DOCKED: USER    
DOCKED: USER    
DOCKED: USER    NEWDPF move ../ligands/orthovanadate.pdbqt
DOCKED: USER    NEWDPF about 0.000000 0.000000 0.000000
DOCKED: USER    NEWDPF tran0 -35.785415 -20.133226 -43.175206
DOCKED: USER    NEWDPF quaternion0 0.122488 0.763166 0.324455 -0.545255
DOCKED: USER    NEWDPF axisangle0 0.146120 0.910406 0.387053 -113.915871
DOCKED: USER    NEWDPF quat0 0.146120 0.910406 0.387053 -113.915871
DOCKED: USER  keepresnum = 1 
DOCKED: USER  
DOCKED: USER                              x       y       z     vdW  Elec       q    Type
DOCKED: USER                           _______ _______ _______ _____ _____    ______ ____
DOCKED: ROOT
DOCKED: ATOM      1  V1  VO4 A   1     -35.785 -20.133 -43.175 +1.09 +0.78    +1.500 Zn
DOCKED: ATOM      2  O1  VO4 A   1     -35.412 -18.455 -43.497 -0.43 -0.41    -0.750 OA
DOCKED: ATOM      3  O2  VO4 A   1     -36.917 -20.719 -44.374 -0.36 -1.12    -0.750 OA
DOCKED: ATOM      4  O3  VO4 A   1     -36.496 -20.278 -41.583 +0.15 -0.15    -0.750 OA
DOCKED: ATOM      5  O4  VO4 A   1     -34.317 -21.081 -43.247 -0.59 -0.47    -0.750 OA
DOCKED: ENDROOT
DOCKED: TORSDOF 0
DOCKED: TER
DOCKED: ENDMDL
________________________________________________________________________________


	BEGINNING GENETIC ALGORITHM DOCKING 48 of 50
Run: 48 Seed: 1871569346 1712635765 [ Run 48 of 50 GA/GALS ]
Beginning LAMARCKIAN GENETIC ALGORITHM (LGA), with a maximum of 250000 energy evaluations.

Final-Value: -1.467


	FINAL GENETIC ALGORITHM DOCKED STATE
	_______________________________________________


Detailed state:  trans -35.997 -20.068 -43.261 quatxyzw 0.117955 0.352199 -0.603939 -0.705195 center 0.000 0.000 0.000 ntor 0
State:	-35.997 -20.068 -43.261   0.166  0.497 -0.852 -90.309  

DOCKED: MODEL       48
DOCKED: USER    Run = 48
DOCKED: USER    DPF = pocket_small.dpf
DOCKED: USER  
DOCKED: USER    Estimated Free Energy of Binding    =   -1.47 kcal/mol  [=(1)+(2)+(3)-(4)]
DOCKED: USER    Estimated Inhibition Constant, Ki   =   84.13 mM (millimolar)  [Temperature = 298.15 K]
DOCKED: USER    
DOCKED: USER    (1) Final Intermolecular Energy     =   -1.47 kcal/mol
DOCKED: USER        vdW + Hbond + desolv Energy     =   +0.03 kcal/mol
DOCKED: USER        Electrostatic Energy            =   -1.49 kcal/mol
DOCKED: USER    (2) Final Total Internal Energy     =   +0.00 kcal/mol
DOCKED: USER    (3) Torsional Free Energy           =   +0.00 kcal/mol
DOCKED: USER    (4) Unbound System's Energy  [=(2)] =   +0.00 kcal/mol
DOCKED: USER    
DOCKED: USER    
DOCKED: USER    NEWDPF move ../ligands/orthovanadate.pdbqt
DOCKED: USER    NEWDPF about 0.000000 0.000000 0.000000
DOCKED: USER    NEWDPF tran0 -35.996517 -20.068433 -43.260530
DOCKED: USER    NEWDPF quaternion0 0.117955 0.352199 -0.603939 -0.705195
DOCKED: USER    NEWDPF axisangle0 0.166365 0.496745 -0.851802 -90.309417
DOCKED: USER    NEWDPF quat0 0.166365 0.496745 -0.851802 -90.309417
DOCKED: USER  keepresnum = 1 
DOCKED: USER  
DOCKED: USER                              x       y       z     vdW  Elec       q    Type
DOCKED: USER                           _______ _______ _______ _____ _____    ______ ____
DOCKED: ROOT
DOCKED: ATOM      1  V1  VO4 A   1     -35.997 -20.068 -43.261 +1.09 +0.84    +1.500 Zn
DOCKED: ATOM      2  O1  VO4 A   1     -34.672 -21.197 -43.436 -0.57 -0.50    -0.750 OA
DOCKED: ATOM      3  O2  VO4 A   1     -37.276 -20.492 -44.376 -0.19 -1.24    -0.750 OA
DOCKED: ATOM      4  O3  VO4 A   1     -35.433 -18.449 -43.608 -0.45 -0.43    -0.750 OA
DOCKED: ATOM      5  O4  VO4 A   1     -36.606 -20.135 -41.622 +0.15 -0.15    -0.750 OA
DOCKED: ENDROOT
DOCKED: TORSDOF 0
DOCKED: TER
DOCKED: ENDMDL
________________________________________________________________________________


	BEGINNING GENETIC ALGORITHM DOCKING 49 of 50
Run: 49 Seed: 1172843166 271484240 [ Run 49 of 50 GA/GALS ]
Beginning LAMARCKIAN GENETIC ALGORITHM (LGA), with a maximum of 250000 energy evaluations.

Final-Value: -1.486


	FINAL GENETIC ALGORITHM DOCKED STATE
	_______________________________________________


Detailed state:  trans -35.872 -20.066 -43.207 quatxyzw 0.745677 -0.574961 -0.321617 0.099743 center 0.000 0.000 0.000 ntor 0
State:	-35.872 -20.066 -43.207   0.749 -0.578 -0.323 168.551  

DOCKED: MODEL       49
DOCKED: USER    Run = 49
DOCKED: USER    DPF = pocket_small.dpf
DOCKED: USER  
DOCKED: USER    Estimated Free Energy of Binding    =   -1.49 kcal/mol  [=(1)+(2)+(3)-(4)]
DOCKED: USER    Estimated Inhibition Constant, Ki   =   81.44 mM (millimolar)  [Temperature = 298.15 K]
DOCKED: USER    
DOCKED: USER    (1) Final Intermolecular Energy     =   -1.49 kcal/mol
DOCKED: USER        vdW + Hbond + desolv Energy     =   -0.10 kcal/mol
DOCKED: USER        Electrostatic Energy            =   -1.38 kcal/mol
DOCKED: USER    (2) Final Total Internal Energy     =   +0.00 kcal/mol
DOCKED: USER    (3) Torsional Free Energy           =   +0.00 kcal/mol
DOCKED: USER    (4) Unbound System's Energy  [=(2)] =   +0.00 kcal/mol
DOCKED: USER    
DOCKED: USER    
DOCKED: USER    NEWDPF move ../ligands/orthovanadate.pdbqt
DOCKED: USER    NEWDPF about 0.000000 0.000000 0.000000
DOCKED: USER    NEWDPF tran0 -35.872469 -20.066132 -43.207211
DOCKED: USER    NEWDPF quaternion0 0.745677 -0.574961 -0.321617 0.099743
DOCKED: USER    NEWDPF axisangle0 0.749414 -0.577842 -0.323229 168.551267
DOCKED: USER    NEWDPF quat0 0.749414 -0.577842 -0.323229 168.551267
DOCKED: USER  keepresnum = 1 
DOCKED: USER  
DOCKED: USER                              x       y       z     vdW  Elec       q    Type
DOCKED: USER                           _______ _______ _______ _____ _____    ______ ____
DOCKED: ROOT
DOCKED: ATOM      1  V1  VO4 A   1     -35.872 -20.066 -43.207 +1.09 +0.80    +1.500 Zn
DOCKED: ATOM      2  O1  VO4 A   1     -37.039 -20.666 -44.365 -0.31 -1.15    -0.750 OA
DOCKED: ATOM      3  O2  VO4 A   1     -34.440 -21.069 -43.250 -0.59 -0.46    -0.750 OA
DOCKED: ATOM      4  O3  VO4 A   1     -36.568 -20.111 -41.603 +0.15 -0.15    -0.750 OA
DOCKED: ATOM      5  O4  VO4 A   1     -35.444 -18.419 -43.611 -0.44 -0.43    -0.750 OA
DOCKED: ENDROOT
DOCKED: TORSDOF 0
DOCKED: TER
DOCKED: ENDMDL
________________________________________________________________________________


	BEGINNING GENETIC ALGORITHM DOCKING 50 of 50
Run: 50 Seed: 1837507058 2105253508 [ Run 50 of 50 GA/GALS ]
Beginning LAMARCKIAN GENETIC ALGORITHM (LGA), with a maximum of 250000 energy evaluations.

Final-Value: -1.504


	FINAL GENETIC ALGORITHM DOCKED STATE
	_______________________________________________


Detailed state:  trans -35.818 -20.112 -43.219 quatxyzw -0.447491 0.017831 0.208714 -0.869409 center 0.000 0.000 0.000 ntor 0
State:	-35.818 -20.112 -43.219  -0.906  0.036  0.422 -59.220  

DOCKED: MODEL       50
DOCKED: USER    Run = 50
DOCKED: USER    DPF = pocket_small.dpf
DOCKED: USER  
DOCKED: USER    Estimated Free Energy of Binding    =   -1.50 kcal/mol  [=(1)+(2)+(3)-(4)]
DOCKED: USER    Estimated Inhibition Constant, Ki   =   79.05 mM (millimolar)  [Temperature = 298.15 K]
DOCKED: USER    
DOCKED: USER    (1) Final Intermolecular Energy     =   -1.50 kcal/mol
DOCKED: USER        vdW + Hbond + desolv Energy     =   -0.12 kcal/mol
DOCKED: USER        Electrostatic Energy            =   -1.38 kcal/mol
DOCKED: USER    (2) Final Total Internal Energy     =   +0.00 kcal/mol
DOCKED: USER    (3) Torsional Free Energy           =   +0.00 kcal/mol
DOCKED: USER    (4) Unbound System's Energy  [=(2)] =   +0.00 kcal/mol
DOCKED: USER    
DOCKED: USER    
DOCKED: USER    NEWDPF move ../ligands/orthovanadate.pdbqt
DOCKED: USER    NEWDPF about 0.000000 0.000000 0.000000
DOCKED: USER    NEWDPF tran0 -35.817773 -20.111500 -43.218838
DOCKED: USER    NEWDPF quaternion0 -0.447491 0.017831 0.208714 -0.869409
DOCKED: USER    NEWDPF axisangle0 -0.905682 0.036089 0.422419 -59.219900
DOCKED: USER    NEWDPF quat0 -0.905682 0.036089 0.422419 -59.219900
DOCKED: USER  keepresnum = 1 
DOCKED: USER  
DOCKED: USER                              x       y       z     vdW  Elec       q    Type
DOCKED: USER                           _______ _______ _______ _____ _____    ______ ____
DOCKED: ROOT
DOCKED: ATOM      1  V1  VO4 A   1     -35.818 -20.112 -43.219 +1.09 +0.80    +1.500 Zn
DOCKED: ATOM      2  O1  VO4 A   1     -35.436 -18.450 -43.612 -0.45 -0.43    -0.750 OA
DOCKED: ATOM      3  O2  VO4 A   1     -34.356 -21.072 -43.265 -0.58 -0.47    -0.750 OA
DOCKED: ATOM      4  O3  VO4 A   1     -36.964 -20.738 -44.382 -0.33 -1.13    -0.750 OA
DOCKED: ATOM      5  O4  VO4 A   1     -36.514 -20.186 -41.616 +0.15 -0.15    -0.750 OA
DOCKED: ENDROOT
DOCKED: TORSDOF 0
DOCKED: TER
DOCKED: ENDMDL
________________________________________________________________________________

DPF> do_local_only 0

auto-centering ligand on root atoms: 0.000 0.000 0.000
Furthest true ligand atom from "about" center is 1.749 Angstroms (maxrad).
Number of Local Search (LS) only dockings = 0 runs
Unbound model to be used is from file: "../grid/AD4.1_bound.dat".
>>> Closing the docking parameter file (DPF)...
This docking finished at:			9:43 36" p.m., 08/04/2026


________________________________________________________________________________

autodock4: Successful Completion on "TerminalXolotl"

Real= 12.14s,  CPU= 10.21s,  System= 0.10s
________________________________________________________________________________

