REMARK  Name = 415158
REMARK  3 active torsions:
REMARK  status: ('A' for Active; 'I' for Inactive)
REMARK    1  A    between atoms: N_3  and  C_8
REMARK    2  A    between atoms: C_4  and  C_5
REMARK    3  A    between atoms: C_5  and  C_8
REMARK                            x       y       z     vdW  Elec       q    Type
REMARK                         _______ _______ _______ _____ _____    ______ ____
ROOT
ATOM      1  N   UNL     1       0.366   1.071   0.313  0.00  0.00    -0.342 N 
ATOM      2  N   UNL     1       0.380  -1.151   0.282  0.00  0.00    -0.232 NA
ATOM      3  C   UNL     1       1.113  -0.069   0.414  0.00  0.00    +0.109 A 
ATOM      4  C   UNL     1      -0.937   0.700   0.103  0.00  0.00    +0.066 A 
ATOM      5  C   UNL     1      -0.903  -0.692   0.087  0.00  0.00    +0.089 A 
ATOM      6  C   UNL     1      -2.108   1.439  -0.071  0.00  0.00    -0.036 A 
ATOM      7  C   UNL     1      -2.097  -1.405  -0.111  0.00  0.00    -0.034 A 
ATOM      8  C   UNL     1      -3.288   0.714  -0.267  0.00  0.00    -0.060 A 
ATOM      9  C   UNL     1      -3.284  -0.683  -0.287  0.00  0.00    -0.060 A 
ATOM     10  H   UNL     1       0.703   1.994   0.380  0.00  0.00    +0.000 HD
ENDROOT
BRANCH   3  11
ATOM     11  C   UNL     1       2.569  -0.012   0.644  0.00  0.00    +0.018 C 
BRANCH  11  12
ATOM     12  C   UNL     1       3.374   0.032  -0.671  0.00  0.00    -0.000 C 
BRANCH  12  13
ATOM     13  N   UNL     1       4.814   0.056  -0.436  0.00  0.00    -0.330 N 
ATOM     14  H   UNL     1       5.304   0.085  -1.330  0.00  0.00    +0.000 HD
ATOM     15  H   UNL     1       5.089  -0.782   0.076  0.00  0.00    +0.000 HD
ATOM     16  H   UNL     1       5.055   0.883   0.110  0.00  0.00    +0.000 HD
ENDBRANCH  12  13
ENDBRANCH  11  12
ENDBRANCH   3  11
TORSDOF 3
