MODEL       28
USER    Run = 28
USER    DPF = blind_docking.dpf
USER  
USER    Estimated Free Energy of Binding    =   -2.12 kcal/mol  [=(1)+(2)+(3)-(4)]
USER    Estimated Inhibition Constant, Ki   =   28.04 mM (millimolar)  [Temperature = 298.15 K]
USER    
USER    (1) Final Intermolecular Energy     =   -2.12 kcal/mol
USER        vdW + Hbond + desolv Energy     =   -0.01 kcal/mol
USER        Electrostatic Energy            =   -2.11 kcal/mol
USER    (2) Final Total Internal Energy     =   +0.00 kcal/mol
USER    (3) Torsional Free Energy           =   +0.00 kcal/mol
USER    (4) Unbound System's Energy  [=(2)] =   +0.00 kcal/mol
USER    
USER    
USER    NEWDPF move ../ligands/decavanadate.pdbqt
USER    NEWDPF about 38.166447 -0.097658 117.776763
USER    NEWDPF tran0 -26.228405 -33.041319 -29.914372
USER    NEWDPF quaternion0 -0.568389 0.144367 -0.749101 0.308122
USER    NEWDPF axisangle0 -0.597458 0.151751 -0.787411 144.107860
USER    NEWDPF quat0 -0.597458 0.151751 -0.787411 144.107860
USER  keepresnum = 1 
USER  
USER                              x       y       z     vdW  Elec       q    Type
USER                           _______ _______ _______ _____ _____    ______ ____
ROOT
ATOM      1  O28 DVT A 531     -29.260 -36.696 -31.228 +0.00 +0.02    -0.750 OA
ATOM      2  V10 DVT A 531     -28.624 -35.332 -30.743 +0.01 +0.03    +1.500 Zn
ATOM      3  O18 DVT A 531     -28.675 -34.137 -32.155 +0.02 -0.12    -0.750 OA
ATOM      4  O15 DVT A 531     -30.029 -34.324 -30.107 +0.01 -0.02    -0.750 OA
ATOM      5  V1  DVT A 531     -29.585 -32.690 -29.397 +0.02 +0.13    +1.500 Zn
ATOM      6  O5  DVT A 531     -31.001 -32.031 -28.950 +0.01 -0.03    -0.750 OA
ATOM      7  O27 DVT A 531     -28.234 -35.752 -28.946 +0.00 +0.02    -0.750 OA
ATOM      8  V9  DVT A 531     -27.480 -34.407 -27.948 +0.00 -0.02    +1.500 Zn
ATOM      9  O2  DVT A 531     -27.477 -33.439 -29.961 +0.02 -0.09    -0.750 OA
ATOM     10  O4  DVT A 531     -29.025 -33.496 -27.792 +0.01 +0.00    -0.750 OA
ATOM     11  O8  DVT A 531     -26.453 -32.703 -27.689 +0.01 -0.01    -0.750 OA
ATOM     12  O26 DVT A 531     -27.218 -35.182 -26.566 +0.00 +0.04    -0.750 OA
ATOM     13  O24 DVT A 531     -25.687 -34.917 -28.719 +0.01 +0.01    -0.750 OA
ATOM     14  V7  DVT A 531     -24.635 -33.448 -27.795 +0.00 -0.02    +1.500 Zn
ATOM     15  O11 DVT A 531     -23.919 -31.823 -27.622 +0.01 +0.00    -0.750 OA
ATOM     16  O25 DVT A 531     -24.468 -34.407 -26.520 +0.00 +0.04    -0.750 OA
ATOM     17  O21 DVT A 531     -23.158 -34.055 -28.713 +0.00 +0.02    -0.750 OA
ATOM     18  V6  DVT A 531     -22.835 -33.385 -30.428 +0.02 +0.03    +1.500 Zn
ATOM     19  O19 DVT A 531     -23.437 -32.722 -32.081 +0.03 -0.12    -0.750 OA
ATOM     20  O22 DVT A 531     -21.439 -34.133 -30.677 +0.00 +0.03    -0.750 OA
ATOM     21  O6  DVT A 531     -22.366 -31.716 -29.784 +0.01 -0.02    -0.750 OA
ATOM     22  V8  DVT A 531     -25.699 -34.484 -30.578 +0.02 +0.10    +1.500 Zn
ATOM     23  O20 DVT A 531     -24.134 -34.880 -31.009 +0.01 -0.01    -0.750 OA
ATOM     24  O23 DVT A 531     -26.671 -35.768 -31.031 +0.01 -0.01    -0.750 OA
ATOM     25  O16 DVT A 531     -24.960 -32.656 -29.869 +0.02 -0.10    -0.750 OA
ATOM     26  V5  DVT A 531     -23.814 -30.725 -29.148 +0.03 +0.14    +1.500 Zn
ATOM     27  O14 DVT A 531     -23.190 -29.337 -28.626 +0.01 -0.03    -0.750 OA
ATOM     28  O7  DVT A 531     -25.764 -30.303 -28.772 +0.02 -0.12    -0.750 OA
ATOM     29  V2  DVT A 531     -26.742 -31.592 -29.277 +0.04 +0.29    +1.500 Zn
ATOM     30  O1  DVT A 531     -28.313 -31.146 -28.883 +0.02 -0.11    -0.750 OA
ATOM     31  O17 DVT A 531     -26.101 -33.343 -32.092 +0.02 -0.24    -0.750 OA
ATOM     32  V4  DVT A 531     -24.911 -31.750 -31.886 +0.13 +0.84    +1.500 Zn
ATOM     33  O13 DVT A 531     -24.186 -30.359 -30.973 +0.02 -0.30    -0.750 OA
ATOM     34  O12 DVT A 531     -25.125 -31.016 -33.303 -0.40 -1.30    -0.750 OA
ATOM     35  O9  DVT A 531     -26.660 -31.199 -31.116 +0.02 -0.57    -0.750 OA
ATOM     36  V3  DVT A 531     -27.915 -32.539 -31.932 +0.09 +0.81    +1.500 Zn
ATOM     37  O3  DVT A 531     -29.391 -31.911 -31.082 +0.02 -0.26    -0.750 OA
ATOM     38  O10 DVT A 531     -28.097 -31.765 -33.346 -0.29 -1.15    -0.750 OA
ENDROOT
TORSDOF 0
TER
ENDMDL
